<UPF version="2.0.1">
  <PP_INFO>

 This pseudopotential file has been produced using the code
 ONCVPSP  (Optimized Norm-Conservinng Vanderbilt PSeudopotential)
 scalar-relativistic version 2.1.1, 03/26/2014 by D. R. Hamann
 The code is available through a link at URL www.mat-simresearch.com.
 Documentation with the package provides a full discription of the
 input data below.


 While it is not required under the terms of the GNU GPL, it is
 suggested that you cite D. R. Hamann, Phys. Rev. B 88, 085117 (2013)
 in any publication using these pseudopotentials.

    <PP_INPUTFILE>
# ATOM AND REFERENCE CONFIGURATION
# atsym  z    nc    nv    iexc   psfile
  Au 79.00    10     4     4      upf
#
#   n    l    f        energy (Ha)
    1    0    2.00
    2    0    2.00
    2    1    6.00
    3    0    2.00
    3    1    6.00
    3    2   10.00
    4    0    2.00
    4    1    6.00
    4    2   10.00
    4    3   14.00
    5    0    2.00
    5    1    6.00
    6    0    2.00
    5    2    9.00
#
# PSEUDOPOTENTIAL AND OPTIMIZATION
# lmax
    3
#
#   l,   rc,     ep,   ncon, nbas, qcut
    0   2.46102  -4.08990    5    8   6.08494
    1   2.46102  -2.29801    5    8   6.28249
    2   2.18429  -0.32889    5    8   6.84203
    3   3.12411   0.19646    5    8   4.94734
#
# LOCAL POTENTIAL
# lloc, lpopt,  rc(5),   dvloc0
    4    5   1.58284      0.00000
#
# VANDERBILT-KLEINMAN-BYLANDER PROJECTORs
# l, nproj, debl
    0    2   3.84504
    1    2   2.25747
    2    2   1.29537
    3    2   1.78775
#
# MODEL CORE CHARGE
# icmod, fcfact
    0   0.00000
#
# LOG DERIVATIVE ANALYSIS
# epsh1, epsh2, depsh
   -5.00    3.00    0.02
#
# OUTPUT GRID
# rlmax, drl
    6.00    0.01
#
# TEST CONFIGURATIONS
# ncnf
    0
# nvcnf
#   n    l    f
    </PP_INPUTFILE>
  </PP_INFO>
  <!--                               -->
  <!-- END OF HUMAN READABLE SECTION -->
  <!--                               -->
    <PP_HEADER
       generated="Generated using ONCVPSP code by D. R. Hamann"
       author="anonymous"
       date="241015"
       comment=""
       element="Au"
       pseudo_type="NC"
       relativistic="scalar"
       is_ultrasoft="F"
       is_paw="F"
       is_coulomb="F"
       has_so="F"
       has_wfc="F"
       has_gipaw="T"
       core_correction="F"
       functional="PBE"
       z_valence="   19.00"
       total_psenergy="  -1.37186145433E+02"
       rho_cutoff="   6.01000000000E+00"
       l_max="3"
       l_local="-1"
       mesh_size="   602"
       number_of_wfc="0"
       number_of_proj="8"/>
 <PP_MESH>
   <PP_R type="real"  size=" 602" columns="8">
    0.0000    0.0100    0.0200    0.0300    0.0400    0.0500    0.0600    0.0700
    0.0800    0.0900    0.1000    0.1100    0.1200    0.1300    0.1400    0.1500
    0.1600    0.1700    0.1800    0.1900    0.2000    0.2100    0.2200    0.2300
    0.2400    0.2500    0.2600    0.2700    0.2800    0.2900    0.3000    0.3100
    0.3200    0.3300    0.3400    0.3500    0.3600    0.3700    0.3800    0.3900
    0.4000    0.4100    0.4200    0.4300    0.4400    0.4500    0.4600    0.4700
    0.4800    0.4900    0.5000    0.5100    0.5200    0.5300    0.5400    0.5500
    0.5600    0.5700    0.5800    0.5900    0.6000    0.6100    0.6200    0.6300
    0.6400    0.6500    0.6600    0.6700    0.6800    0.6900    0.7000    0.7100
    0.7200    0.7300    0.7400    0.7500    0.7600    0.7700    0.7800    0.7900
    0.8000    0.8100    0.8200    0.8300    0.8400    0.8500    0.8600    0.8700
    0.8800    0.8900    0.9000    0.9100    0.9200    0.9300    0.9400    0.9500
    0.9600    0.9700    0.9800    0.9900    1.0000    1.0100    1.0200    1.0300
    1.0400    1.0500    1.0600    1.0700    1.0800    1.0900    1.1000    1.1100
    1.1200    1.1300    1.1400    1.1500    1.1600    1.1700    1.1800    1.1900
    1.2000    1.2100    1.2200    1.2300    1.2400    1.2500    1.2600    1.2700
    1.2800    1.2900    1.3000    1.3100    1.3200    1.3300    1.3400    1.3500
    1.3600    1.3700    1.3800    1.3900    1.4000    1.4100    1.4200    1.4300
    1.4400    1.4500    1.4600    1.4700    1.4800    1.4900    1.5000    1.5100
    1.5200    1.5300    1.5400    1.5500    1.5600    1.5700    1.5800    1.5900
    1.6000    1.6100    1.6200    1.6300    1.6400    1.6500    1.6600    1.6700
    1.6800    1.6900    1.7000    1.7100    1.7200    1.7300    1.7400    1.7500
    1.7600    1.7700    1.7800    1.7900    1.8000    1.8100    1.8200    1.8300
    1.8400    1.8500    1.8600    1.8700    1.8800    1.8900    1.9000    1.9100
    1.9200    1.9300    1.9400    1.9500    1.9600    1.9700    1.9800    1.9900
    2.0000    2.0100    2.0200    2.0300    2.0400    2.0500    2.0600    2.0700
    2.0800    2.0900    2.1000    2.1100    2.1200    2.1300    2.1400    2.1500
    2.1600    2.1700    2.1800    2.1900    2.2000    2.2100    2.2200    2.2300
    2.2400    2.2500    2.2600    2.2700    2.2800    2.2900    2.3000    2.3100
    2.3200    2.3300    2.3400    2.3500    2.3600    2.3700    2.3800    2.3900
    2.4000    2.4100    2.4200    2.4300    2.4400    2.4500    2.4600    2.4700
    2.4800    2.4900    2.5000    2.5100    2.5200    2.5300    2.5400    2.5500
    2.5600    2.5700    2.5800    2.5900    2.6000    2.6100    2.6200    2.6300
    2.6400    2.6500    2.6600    2.6700    2.6800    2.6900    2.7000    2.7100
    2.7200    2.7300    2.7400    2.7500    2.7600    2.7700    2.7800    2.7900
    2.8000    2.8100    2.8200    2.8300    2.8400    2.8500    2.8600    2.8700
    2.8800    2.8900    2.9000    2.9100    2.9200    2.9300    2.9400    2.9500
    2.9600    2.9700    2.9800    2.9900    3.0000    3.0100    3.0200    3.0300
    3.0400    3.0500    3.0600    3.0700    3.0800    3.0900    3.1000    3.1100
    3.1200    3.1300    3.1400    3.1500    3.1600    3.1700    3.1800    3.1900
    3.2000    3.2100    3.2200    3.2300    3.2400    3.2500    3.2600    3.2700
    3.2800    3.2900    3.3000    3.3100    3.3200    3.3300    3.3400    3.3500
    3.3600    3.3700    3.3800    3.3900    3.4000    3.4100    3.4200    3.4300
    3.4400    3.4500    3.4600    3.4700    3.4800    3.4900    3.5000    3.5100
    3.5200    3.5300    3.5400    3.5500    3.5600    3.5700    3.5800    3.5900
    3.6000    3.6100    3.6200    3.6300    3.6400    3.6500    3.6600    3.6700
    3.6800    3.6900    3.7000    3.7100    3.7200    3.7300    3.7400    3.7500
    3.7600    3.7700    3.7800    3.7900    3.8000    3.8100    3.8200    3.8300
    3.8400    3.8500    3.8600    3.8700    3.8800    3.8900    3.9000    3.9100
    3.9200    3.9300    3.9400    3.9500    3.9600    3.9700    3.9800    3.9900
    4.0000    4.0100    4.0200    4.0300    4.0400    4.0500    4.0600    4.0700
    4.0800    4.0900    4.1000    4.1100    4.1200    4.1300    4.1400    4.1500
    4.1600    4.1700    4.1800    4.1900    4.2000    4.2100    4.2200    4.2300
    4.2400    4.2500    4.2600    4.2700    4.2800    4.2900    4.3000    4.3100
    4.3200    4.3300    4.3400    4.3500    4.3600    4.3700    4.3800    4.3900
    4.4000    4.4100    4.4200    4.4300    4.4400    4.4500    4.4600    4.4700
    4.4800    4.4900    4.5000    4.5100    4.5200    4.5300    4.5400    4.5500
    4.5600    4.5700    4.5800    4.5900    4.6000    4.6100    4.6200    4.6300
    4.6400    4.6500    4.6600    4.6700    4.6800    4.6900    4.7000    4.7100
    4.7200    4.7300    4.7400    4.7500    4.7600    4.7700    4.7800    4.7900
    4.8000    4.8100    4.8200    4.8300    4.8400    4.8500    4.8600    4.8700
    4.8800    4.8900    4.9000    4.9100    4.9200    4.9300    4.9400    4.9500
    4.9600    4.9700    4.9800    4.9900    5.0000    5.0100    5.0200    5.0300
    5.0400    5.0500    5.0600    5.0700    5.0800    5.0900    5.1000    5.1100
    5.1200    5.1300    5.1400    5.1500    5.1600    5.1700    5.1800    5.1900
    5.2000    5.2100    5.2200    5.2300    5.2400    5.2500    5.2600    5.2700
    5.2800    5.2900    5.3000    5.3100    5.3200    5.3300    5.3400    5.3500
    5.3600    5.3700    5.3800    5.3900    5.4000    5.4100    5.4200    5.4300
    5.4400    5.4500    5.4600    5.4700    5.4800    5.4900    5.5000    5.5100
    5.5200    5.5300    5.5400    5.5500    5.5600    5.5700    5.5800    5.5900
    5.6000    5.6100    5.6200    5.6300    5.6400    5.6500    5.6600    5.6700
    5.6800    5.6900    5.7000    5.7100    5.7200    5.7300    5.7400    5.7500
    5.7600    5.7700    5.7800    5.7900    5.8000    5.8100    5.8200    5.8300
    5.8400    5.8500    5.8600    5.8700    5.8800    5.8900    5.9000    5.9100
    5.9200    5.9300    5.9400    5.9500    5.9600    5.9700    5.9800    5.9900
    6.0000    6.0100
   </PP_R>
   <PP_RAB type="real"  size=" 602" columns="8">
    0.0100    0.0100    0.0100    0.0100    0.0100    0.0100    0.0100    0.0100
    0.0100    0.0100    0.0100    0.0100    0.0100    0.0100    0.0100    0.0100
    0.0100    0.0100    0.0100    0.0100    0.0100    0.0100    0.0100    0.0100
    0.0100    0.0100    0.0100    0.0100    0.0100    0.0100    0.0100    0.0100
    0.0100    0.0100    0.0100    0.0100    0.0100    0.0100    0.0100    0.0100
    0.0100    0.0100    0.0100    0.0100    0.0100    0.0100    0.0100    0.0100
    0.0100    0.0100    0.0100    0.0100    0.0100    0.0100    0.0100    0.0100
    0.0100    0.0100    0.0100    0.0100    0.0100    0.0100    0.0100    0.0100
    0.0100    0.0100    0.0100    0.0100    0.0100    0.0100    0.0100    0.0100
    0.0100    0.0100    0.0100    0.0100    0.0100    0.0100    0.0100    0.0100
    0.0100    0.0100    0.0100    0.0100    0.0100    0.0100    0.0100    0.0100
    0.0100    0.0100    0.0100    0.0100    0.0100    0.0100    0.0100    0.0100
    0.0100    0.0100    0.0100    0.0100    0.0100    0.0100    0.0100    0.0100
    0.0100    0.0100    0.0100    0.0100    0.0100    0.0100    0.0100    0.0100
    0.0100    0.0100    0.0100    0.0100    0.0100    0.0100    0.0100    0.0100
    0.0100    0.0100    0.0100    0.0100    0.0100    0.0100    0.0100    0.0100
    0.0100    0.0100    0.0100    0.0100    0.0100    0.0100    0.0100    0.0100
    0.0100    0.0100    0.0100    0.0100    0.0100    0.0100    0.0100    0.0100
    0.0100    0.0100    0.0100    0.0100    0.0100    0.0100    0.0100    0.0100
    0.0100    0.0100    0.0100    0.0100    0.0100    0.0100    0.0100    0.0100
    0.0100    0.0100    0.0100    0.0100    0.0100    0.0100    0.0100    0.0100
    0.0100    0.0100    0.0100    0.0100    0.0100    0.0100    0.0100    0.0100
    0.0100    0.0100    0.0100    0.0100    0.0100    0.0100    0.0100    0.0100
    0.0100    0.0100    0.0100    0.0100    0.0100    0.0100    0.0100    0.0100
    0.0100    0.0100    0.0100    0.0100    0.0100    0.0100    0.0100    0.0100
    0.0100    0.0100    0.0100    0.0100    0.0100    0.0100    0.0100    0.0100
    0.0100    0.0100    0.0100    0.0100    0.0100    0.0100    0.0100    0.0100
    0.0100    0.0100    0.0100    0.0100    0.0100    0.0100    0.0100    0.0100
    0.0100    0.0100    0.0100    0.0100    0.0100    0.0100    0.0100    0.0100
    0.0100    0.0100    0.0100    0.0100    0.0100    0.0100    0.0100    0.0100
    0.0100    0.0100    0.0100    0.0100    0.0100    0.0100    0.0100    0.0100
    0.0100    0.0100    0.0100    0.0100    0.0100    0.0100    0.0100    0.0100
    0.0100    0.0100    0.0100    0.0100    0.0100    0.0100    0.0100    0.0100
    0.0100    0.0100    0.0100    0.0100    0.0100    0.0100    0.0100    0.0100
    0.0100    0.0100    0.0100    0.0100    0.0100    0.0100    0.0100    0.0100
    0.0100    0.0100    0.0100    0.0100    0.0100    0.0100    0.0100    0.0100
    0.0100    0.0100    0.0100    0.0100    0.0100    0.0100    0.0100    0.0100
    0.0100    0.0100    0.0100    0.0100    0.0100    0.0100    0.0100    0.0100
    0.0100    0.0100    0.0100    0.0100    0.0100    0.0100    0.0100    0.0100
    0.0100    0.0100    0.0100    0.0100    0.0100    0.0100    0.0100    0.0100
    0.0100    0.0100    0.0100    0.0100    0.0100    0.0100    0.0100    0.0100
    0.0100    0.0100    0.0100    0.0100    0.0100    0.0100    0.0100    0.0100
    0.0100    0.0100    0.0100    0.0100    0.0100    0.0100    0.0100    0.0100
    0.0100    0.0100    0.0100    0.0100    0.0100    0.0100    0.0100    0.0100
    0.0100    0.0100    0.0100    0.0100    0.0100    0.0100    0.0100    0.0100
    0.0100    0.0100    0.0100    0.0100    0.0100    0.0100    0.0100    0.0100
    0.0100    0.0100    0.0100    0.0100    0.0100    0.0100    0.0100    0.0100
    0.0100    0.0100    0.0100    0.0100    0.0100    0.0100    0.0100    0.0100
    0.0100    0.0100    0.0100    0.0100    0.0100    0.0100    0.0100    0.0100
    0.0100    0.0100    0.0100    0.0100    0.0100    0.0100    0.0100    0.0100
    0.0100    0.0100    0.0100    0.0100    0.0100    0.0100    0.0100    0.0100
    0.0100    0.0100    0.0100    0.0100    0.0100    0.0100    0.0100    0.0100
    0.0100    0.0100    0.0100    0.0100    0.0100    0.0100    0.0100    0.0100
    0.0100    0.0100    0.0100    0.0100    0.0100    0.0100    0.0100    0.0100
    0.0100    0.0100    0.0100    0.0100    0.0100    0.0100    0.0100    0.0100
    0.0100    0.0100    0.0100    0.0100    0.0100    0.0100    0.0100    0.0100
    0.0100    0.0100    0.0100    0.0100    0.0100    0.0100    0.0100    0.0100
    0.0100    0.0100    0.0100    0.0100    0.0100    0.0100    0.0100    0.0100
    0.0100    0.0100    0.0100    0.0100    0.0100    0.0100    0.0100    0.0100
    0.0100    0.0100    0.0100    0.0100    0.0100    0.0100    0.0100    0.0100
    0.0100    0.0100    0.0100    0.0100    0.0100    0.0100    0.0100    0.0100
    0.0100    0.0100    0.0100    0.0100    0.0100    0.0100    0.0100    0.0100
    0.0100    0.0100    0.0100    0.0100    0.0100    0.0100    0.0100    0.0100
    0.0100    0.0100    0.0100    0.0100    0.0100    0.0100    0.0100    0.0100
    0.0100    0.0100    0.0100    0.0100    0.0100    0.0100    0.0100    0.0100
    0.0100    0.0100    0.0100    0.0100    0.0100    0.0100    0.0100    0.0100
    0.0100    0.0100    0.0100    0.0100    0.0100    0.0100    0.0100    0.0100
    0.0100    0.0100    0.0100    0.0100    0.0100    0.0100    0.0100    0.0100
    0.0100    0.0100    0.0100    0.0100    0.0100    0.0100    0.0100    0.0100
    0.0100    0.0100    0.0100    0.0100    0.0100    0.0100    0.0100    0.0100
    0.0100    0.0100    0.0100    0.0100    0.0100    0.0100    0.0100    0.0100
    0.0100    0.0100    0.0100    0.0100    0.0100    0.0100    0.0100    0.0100
    0.0100    0.0100    0.0100    0.0100    0.0100    0.0100    0.0100    0.0100
    0.0100    0.0100    0.0100    0.0100    0.0100    0.0100    0.0100    0.0100
    0.0100    0.0100    0.0100    0.0100    0.0100    0.0100    0.0100    0.0100
    0.0100    0.0100
   </PP_RAB>
 </PP_MESH>
  <PP_LOCAL type="real"  size=" 602" columns="4">
   -5.2737571234E+01   -5.2735652882E+01   -5.2729910933E+01   -5.2720331150E+01
   -5.2706899297E+01   -5.2689596526E+01   -5.2668400372E+01   -5.2643285904E+01
   -5.2614226967E+01   -5.2581197441E+01   -5.2544172437E+01   -5.2503129393E+01
   -5.2458049004E+01   -5.2408915975E+01   -5.2355719572E+01   -5.2298453980E+01
   -5.2237118471E+01   -5.2171717408E+01   -5.2102260110E+01   -5.2028760600E+01
   -5.1951237271E+01   -5.1869712494E+01   -5.1784212191E+01   -5.1694765396E+01
   -5.1601403817E+01   -5.1504161419E+01   -5.1403074027E+01   -5.1298178968E+01
   -5.1189514742E+01   -5.1077120734E+01   -5.0961036968E+01   -5.0841303884E+01
   -5.0717962161E+01   -5.0591052567E+01   -5.0460615833E+01   -5.0326692558E+01
   -5.0189323131E+01   -5.0048547674E+01   -4.9904406007E+01   -4.9756937614E+01
   -4.9606181636E+01   -4.9452176871E+01   -4.9294961774E+01   -4.9134574481E+01
   -4.8971052832E+01   -4.8804434401E+01   -4.8634756538E+01   -4.8462056412E+01
   -4.8286371068E+01   -4.8107737486E+01   -4.7926192643E+01   -4.7741773594E+01
   -4.7554517548E+01   -4.7364461957E+01   -4.7171644611E+01   -4.6976103736E+01
   -4.6777878111E+01   -4.6577007163E+01   -4.6373531113E+01   -4.6167491063E+01
   -4.5958929157E+01   -4.5747888690E+01   -4.5534414215E+01   -4.5318551735E+01
   -4.5100348749E+01   -4.4879854400E+01   -4.4657119632E+01   -4.4432197226E+01
   -4.4205141889E+01   -4.3976010405E+01   -4.3744861656E+01   -4.3511756658E+01
   -4.3276758603E+01   -4.3039932856E+01   -4.2801347011E+01   -4.2561070823E+01
   -4.2319176156E+01   -4.2075736937E+01   -4.1830829076E+01   -4.1584530365E+01
   -4.1336920372E+01   -4.1088080313E+01   -4.0838092913E+01   -4.0587042258E+01
   -4.0335013638E+01   -4.0082093384E+01   -3.9828368699E+01   -3.9573927489E+01
   -3.9318858190E+01   -3.9063249600E+01   -3.8807190712E+01   -3.8550770548E+01
   -3.8294078003E+01   -3.8037201693E+01   -3.7780229808E+01   -3.7523249977E+01
   -3.7266349133E+01   -3.7009613415E+01   -3.6753128034E+01   -3.6496977122E+01
   -3.6241243696E+01   -3.5986009545E+01   -3.5731355146E+01   -3.5477359600E+01
   -3.5224100636E+01   -3.4971654257E+01   -3.4720094957E+01   -3.4469495588E+01
   -3.4219927346E+01   -3.3971459771E+01   -3.3724160322E+01   -3.3478094759E+01
   -3.3233326985E+01   -3.2989919278E+01   -3.2747931427E+01   -3.2507421473E+01
   -3.2268445563E+01   -3.2031057984E+01   -3.1795310416E+01   -3.1561252749E+01
   -3.1328933149E+01   -3.1098397139E+01   -3.0869688122E+01   -3.0642847795E+01
   -3.0417915521E+01   -3.0194928062E+01   -2.9973920611E+01   -2.9754926141E+01
   -2.9537974768E+01   -2.9323095228E+01   -2.9110313872E+01   -2.8899654233E+01
   -2.8691138709E+01   -2.8484786779E+01   -2.8280615534E+01   -2.8078641189E+01
   -2.7878876085E+01   -2.7681331355E+01   -2.7486016340E+01   -2.7292936820E+01
   -2.7102098175E+01   -2.6913502180E+01   -2.6727148939E+01   -2.6543037186E+01
   -2.6361161665E+01   -2.6181517288E+01   -2.6004094543E+01   -2.5828883178E+01
   -2.5655870434E+01   -2.5485040457E+01   -2.5316377193E+01   -2.5149859346E+01
   -2.4985466786E+01   -2.4823173648E+01   -2.4662954532E+01   -2.4504779741E+01
   -2.4348618161E+01   -2.4194436041E+01   -2.4042196618E+01   -2.3891861097E+01
   -2.3743390326E+01   -2.3596743957E+01   -2.3451885255E+01   -2.3308776412E+01
   -2.3167383554E+01   -2.3027671238E+01   -2.2889608145E+01   -2.2753161088E+01
   -2.2618301055E+01   -2.2484997038E+01   -2.2353222089E+01   -2.2222947296E+01
   -2.2094147542E+01   -2.1966795926E+01   -2.1840868936E+01   -2.1716341585E+01
   -2.1593191746E+01   -2.1471396250E+01   -2.1350934148E+01   -2.1231783978E+01
   -2.1113925780E+01   -2.0997339659E+01   -2.0882006482E+01   -2.0767907781E+01
   -2.0655025119E+01   -2.0543341274E+01   -2.0432838417E+01   -2.0323500344E+01
   -2.0215309872E+01   -2.0108251433E+01   -2.0002308757E+01   -1.9897466482E+01
   -1.9793709223E+01   -1.9691021792E+01   -1.9589389538E+01   -1.9488797439E+01
   -1.9389231379E+01   -1.9290676707E+01   -1.9193119503E+01   -1.9096545667E+01
   -1.9000941304E+01   -1.8906292883E+01   -1.8812586518E+01   -1.8719809131E+01
   -1.8627947177E+01   -1.8536987648E+01   -1.8446917599E+01   -1.8357723945E+01
   -1.8269394360E+01   -1.8181915952E+01   -1.8095276625E+01   -1.8009464194E+01
   -1.7924466386E+01   -1.7840271823E+01   -1.7756868413E+01   -1.7674245051E+01
   -1.7592390612E+01   -1.7511293614E+01   -1.7430944011E+01   -1.7351330977E+01
   -1.7272444263E+01   -1.7194273954E+01   -1.7116809262E+01   -1.7040041345E+01
   -1.6963960670E+01   -1.6888557749E+01   -1.6813823899E+01   -1.6739749833E+01
   -1.6666326874E+01   -1.6593546578E+01   -1.6521399912E+01   -1.6449878981E+01
   -1.6378975560E+01   -1.6308681179E+01   -1.6238988423E+01   -1.6169889304E+01
   -1.6101376030E+01   -1.6033441479E+01   -1.5966077970E+01   -1.5899278321E+01
   -1.5833035691E+01   -1.5767342709E+01   -1.5702192732E+01   -1.5637579196E+01
   -1.5573495045E+01   -1.5509934101E+01   -1.5446890070E+01   -1.5384356222E+01
   -1.5322326754E+01   -1.5260795634E+01   -1.5199756418E+01   -1.5139203645E+01
   -1.5079131557E+01   -1.5019534024E+01   -1.4960405841E+01   -1.4901741508E+01
   -1.4843535164E+01   -1.4785781845E+01   -1.4728476320E+01   -1.4671613022E+01
   -1.4615187162E+01   -1.4559193775E+01   -1.4503627571E+01   -1.4448483903E+01
   -1.4393758079E+01   -1.4339445090E+01   -1.4285540392E+01   -1.4232039559E+01
   -1.4178937870E+01   -1.4126230841E+01   -1.4073914316E+01   -1.4021983859E+01
   -1.3970435018E+01   -1.3919263898E+01   -1.3868466355E+01   -1.3818037939E+01
   -1.3767975011E+01   -1.3718273621E+01   -1.3668929590E+01   -1.3619939235E+01
   -1.3571298887E+01   -1.3523004652E+01   -1.3475052768E+01   -1.3427439836E+01
   -1.3380162261E+01   -1.3333216176E+01   -1.3286598446E+01   -1.3240305647E+01
   -1.3194334172E+01   -1.3148680763E+01   -1.3103342275E+01   -1.3058315395E+01
   -1.3013596696E+01   -1.2969183306E+01   -1.2925072114E+01   -1.2881259816E+01
   -1.2837743495E+01   -1.2794520283E+01   -1.2751587170E+01   -1.2708941018E+01
   -1.2666579234E+01   -1.2624498989E+01   -1.2582697298E+01   -1.2541171445E+01
   -1.2499918854E+01   -1.2458936829E+01   -1.2418222429E+01   -1.2377773308E+01
   -1.2337586910E+01   -1.2297660585E+01   -1.2257991693E+01   -1.2218577965E+01
   -1.2179416953E+01   -1.2140506052E+01   -1.2101842924E+01   -1.2063425339E+01
   -1.2025250960E+01   -1.1987317245E+01   -1.1949622114E+01   -1.1912163378E+01
   -1.1874938800E+01   -1.1837945941E+01   -1.1801182904E+01   -1.1764647563E+01
   -1.1728337746E+01   -1.1692251210E+01   -1.1656386118E+01   -1.1620740445E+01
   -1.1585312090E+01   -1.1550098975E+01   -1.1515099327E+01   -1.1480311217E+01
   -1.1445732623E+01   -1.1411361598E+01   -1.1377196443E+01   -1.1343235317E+01
   -1.1309476286E+01   -1.1275917503E+01   -1.1242557347E+01   -1.1209394063E+01
   -1.1176425810E+01   -1.1143650814E+01   -1.1111067537E+01   -1.1078674305E+01
   -1.1046469379E+01   -1.1014451029E+01   -1.0982617805E+01   -1.0950968113E+01
   -1.0919500318E+01   -1.0888212710E+01   -1.0857103934E+01   -1.0826172471E+01
   -1.0795416796E+01   -1.0764835198E+01   -1.0734426418E+01   -1.0704189008E+01
   -1.0674121518E+01   -1.0644222343E+01   -1.0614490196E+01   -1.0584923737E+01
   -1.0555521585E+01   -1.0526282257E+01   -1.0497204406E+01   -1.0468286811E+01
   -1.0439528152E+01   -1.0410927077E+01   -1.0382482161E+01   -1.0354192299E+01
   -1.0326056236E+01   -1.0298072713E+01   -1.0270240327E+01   -1.0242557979E+01
   -1.0215024506E+01   -1.0187638711E+01   -1.0160399327E+01   -1.0133305131E+01
   -1.0106355095E+01   -1.0079548075E+01   -1.0052882930E+01   -1.0026358362E+01
   -9.9999734109E+00   -9.9737270072E+00   -9.9476180618E+00   -9.9216454230E+00
   -9.8958079704E+00   -9.8701047766E+00   -9.8445348032E+00   -9.8190970117E+00
   -9.7937902358E+00   -9.7686135609E+00   -9.7435660372E+00   -9.7186466750E+00
   -9.6938544644E+00   -9.6691882971E+00   -9.6446473718E+00   -9.6202307447E+00
   -9.5959374719E+00   -9.5717665420E+00   -9.5477170016E+00   -9.5237880453E+00
   -9.4999787731E+00   -9.4762882852E+00   -9.4527155784E+00   -9.4292598280E+00
   -9.4059202308E+00   -9.3826959287E+00   -9.3595860639E+00   -9.3365896506E+00
   -9.3137059664E+00   -9.2909342182E+00   -9.2682735881E+00   -9.2457232581E+00
   -9.2232822679E+00   -9.2009499727E+00   -9.1787255977E+00   -9.1566083630E+00
   -9.1345974837E+00   -9.1126920471E+00   -9.0908914480E+00   -9.0691949429E+00
   -9.0476017881E+00   -9.0261112340E+00   -9.0047224098E+00   -8.9834347406E+00
   -8.9622475177E+00   -8.9411600320E+00   -8.9201715746E+00   -8.8992813009E+00
   -8.8784886684E+00   -8.8577930026E+00   -8.8371936275E+00   -8.8166898674E+00
   -8.7962809276E+00   -8.7759662611E+00   -8.7557452404E+00   -8.7356172210E+00
   -8.7155815586E+00   -8.6956375148E+00   -8.6757845198E+00   -8.6560219992E+00
   -8.6363493385E+00   -8.6167659235E+00   -8.5972710780E+00   -8.5778641927E+00
   -8.5585447513E+00   -8.5393121682E+00   -8.5201658575E+00   -8.5011052114E+00
   -8.4821295660E+00   -8.4632384671E+00   -8.4444313564E+00   -8.4257076754E+00
   -8.4070668656E+00   -8.3885082685E+00   -8.3700314222E+00   -8.3516358183E+00
   -8.3333209242E+00   -8.3150862077E+00   -8.2969310892E+00   -8.2788550173E+00
   -8.2608575594E+00   -8.2429382077E+00   -8.2250964548E+00   -8.2073317929E+00
   -8.1896436097E+00   -8.1720315099E+00   -8.1544950224E+00   -8.1370336633E+00
   -8.1196469486E+00   -8.1023343553E+00   -8.0850953684E+00   -8.0679296036E+00
   -8.0508365995E+00   -8.0338158945E+00   -8.0168670273E+00   -7.9999894562E+00
   -7.9831827817E+00   -7.9664465969E+00   -7.9497804620E+00   -7.9331839370E+00
   -7.9166565799E+00   -7.9001978463E+00   -7.8838074232E+00   -7.8674848913E+00
   -7.8512298310E+00   -7.8350418230E+00   -7.8189204195E+00   -7.8028651544E+00
   -7.7868757074E+00   -7.7709516786E+00   -7.7550926681E+00   -7.7392982760E+00
   -7.7235680568E+00   -7.7079016036E+00   -7.6922985953E+00   -7.6767586507E+00
   -7.6612813886E+00   -7.6458664276E+00   -7.6305133316E+00   -7.6152217348E+00
   -7.5999913221E+00   -7.5848217301E+00   -7.5697125953E+00   -7.5546635542E+00
   -7.5396741866E+00   -7.5247441505E+00   -7.5098731435E+00   -7.4950608193E+00
   -7.4803068313E+00   -7.4656108328E+00   -7.4509724259E+00   -7.4363912762E+00
   -7.4218671005E+00   -7.4073995685E+00   -7.3929883496E+00   -7.3786331136E+00
   -7.3643334908E+00   -7.3500891388E+00   -7.3358997996E+00   -7.3217651583E+00
   -7.3076848997E+00   -7.2936587090E+00   -7.2796862504E+00   -7.2657671596E+00
   -7.2519012091E+00   -7.2380880986E+00   -7.2243275276E+00   -7.2106191959E+00
   -7.1969628032E+00   -7.1833579622E+00   -7.1698044687E+00   -7.1563020401E+00
   -7.1428503901E+00   -7.1294492324E+00   -7.1160982805E+00   -7.1027971926E+00
   -7.0895457118E+00   -7.0763435991E+00   -7.0631905815E+00   -7.0500863861E+00
   -7.0370307399E+00   -7.0240233514E+00   -7.0110638997E+00   -6.9981521931E+00
   -6.9852879715E+00   -6.9724709745E+00   -6.9597009418E+00   -6.9469776131E+00
   -6.9343006669E+00   -6.9216698884E+00   -6.9090850536E+00   -6.8965459144E+00
   -6.8840522226E+00   -6.8716037301E+00   -6.8592001758E+00   -6.8468412559E+00
   -6.8345268037E+00   -6.8222565828E+00   -6.8100303564E+00   -6.7978478880E+00
   -6.7857089410E+00   -6.7736132375E+00   -6.7615605472E+00   -6.7495506847E+00
   -6.7375834246E+00   -6.7256585413E+00   -6.7137758092E+00   -6.7019350027E+00
   -6.6901358345E+00   -6.6783781310E+00   -6.6666616949E+00   -6.6549863110E+00
   -6.6433517644E+00   -6.6317578399E+00   -6.6202043225E+00   -6.6086909224E+00
   -6.5972175065E+00   -6.5857838721E+00   -6.5743898140E+00   -6.5630351273E+00
   -6.5517196068E+00   -6.5404430411E+00   -6.5292051635E+00   -6.5180058471E+00
   -6.5068448965E+00   -6.4957221162E+00   -6.4846373107E+00   -6.4735902844E+00
   -6.4625808335E+00   -6.4516087067E+00   -6.4406737826E+00   -6.4297758749E+00
   -6.4189147971E+00   -6.4080903630E+00   -6.3973023860E+00   -6.3865506755E+00
   -6.3758349824E+00   -6.3651551964E+00   -6.3545111397E+00   -6.3439026346E+00
   -6.3333295034E+00   -6.3227915685E+00
  </PP_LOCAL>
 <PP_NONLOCAL>
   <PP_BETA.1
       type="real"
       size=" 602"
       columns="4"
       index="1"
       angular_momentum="0"
       cutoff_radius_index=" 316"
       cutoff_radius="    3.1500000000E+00" >
    0.0000000000E+00    5.6351615935E-02    1.1261254450E-01    1.6869225962E-01
    2.2450055755E-01    2.7994771735E-01    3.3494466060E-01    3.8940310995E-01
    4.4323574638E-01    4.9635636489E-01    5.4868002819E-01    6.0012321839E-01
    6.5060398619E-01    7.0004209749E-01    7.4835917703E-01    7.9547884893E-01
    8.4132687378E-01    8.8583128214E-01    9.2892250410E-01    9.7053349481E-01
    1.0105998556E+00    1.0490599504E+00    1.0858550178E+00    1.1209292779E+00
    1.1542300334E+00    1.1857077662E+00    1.2153162284E+00    1.2430125265E+00
    1.2687572005E+00    1.2925142970E+00    1.3142514355E+00    1.3339398687E+00
    1.3515545361E+00    1.3670741098E+00    1.3804810369E+00    1.3917615698E+00
    1.4009057949E+00    1.4079076490E+00    1.4127649330E+00    1.4154793158E+00
    1.4160563306E+00    1.4145053656E+00    1.4108396455E+00    1.4050762071E+00
    1.3972358660E+00    1.3873431767E+00    1.3754263852E+00    1.3615173738E+00
    1.3456515990E+00    1.3278680228E+00    1.3082090333E+00    1.2867203622E+00
    1.2634509981E+00    1.2384530785E+00    1.2117817945E+00    1.1834952785E+00
    1.1536544762E+00    1.1223230438E+00    1.0895671881E+00    1.0554555642E+00
    1.0200591048E+00    9.8345088603E-01    9.4570599546E-01    9.0690131961E-01
    8.6711544531E-01    8.2642847351E-01    7.8492181007E-01    7.4267804655E-01
    6.9978078863E-01    6.5631441817E-01    6.1236394841E-01    5.6801484970E-01
    5.2335285615E-01    4.7846380304E-01    4.3343337346E-01    3.8834696136E-01
    3.4328948435E-01    2.9834519026E-01    2.5359747177E-01    2.0912868257E-01
    1.6501995554E-01    1.2135102352E-01    7.8200042950E-02    3.5643420964E-02
   -6.2443536039E-03   -4.7390874938E-02   -8.7725980160E-02   -1.2718190403E-01
   -1.6569342799E-01   -2.0319802306E-01   -2.3963598624E-01   -2.7495056985E-01
   -3.0908810346E-01   -3.4199810803E-01   -3.7363340162E-01   -4.0395019661E-01
   -4.3290818775E-01   -4.6047059174E-01   -4.8660426773E-01   -5.1127986826E-01
   -5.3447173097E-01   -5.5615797784E-01   -5.7632054378E-01   -5.9494517866E-01
   -6.1202137310E-01   -6.2754273716E-01   -6.4150657937E-01   -6.5391401164E-01
   -6.6476988011E-01   -6.7408271418E-01   -6.8186497744E-01   -6.8813260449E-01
   -6.9290505779E-01   -6.9620512595E-01   -6.9805928387E-01   -6.9849709648E-01
   -6.9755123984E-01   -6.9525742527E-01   -6.9165438669E-01   -6.8678350093E-01
   -6.8068877410E-01   -6.7341672500E-01   -6.6501608977E-01   -6.5553779903E-01
   -6.4503478166E-01   -6.3356155459E-01   -6.2117441005E-01   -6.0793112677E-01
   -5.9389029107E-01   -5.7911192754E-01   -5.6365685680E-01   -5.4758597538E-01