<UPF version="2.0.1">
  <PP_INFO>

 This pseudopotential file has been produced using the code
 ONCVPSP  (Optimized Norm-Conservinng Vanderbilt PSeudopotential)
 scalar-relativistic version 2.1.1, 03/26/2014 by D. R. Hamann
 The code is available through a link at URL www.mat-simresearch.com.
 Documentation with the package provides a full discription of the
 input data below.


 While it is not required under the terms of the GNU GPL, it is
 suggested that you cite D. R. Hamann, Phys. Rev. B 88, 085117 (2013)
 in any publication using these pseudopotentials.

    <PP_INPUTFILE>
# ATOM AND REFERENCE CONFIGURATION
# atsym  z    nc    nv    iexc   psfile
  H  1.00     0     1     4      upf
#
#   n    l    f        energy (Ha)
    1    0    1.00
#
# PSEUDOPOTENTIAL AND OPTIMIZATION
# lmax
    0
#
#   l,   rc,     ep,   ncon, nbas, qcut
    0   1.13748  -0.23860    5    8   9.72141
#
# LOCAL POTENTIAL
# lloc, lpopt,  rc(5),   dvloc0
    4    5   0.49352      0.00000
#
# VANDERBILT-KLEINMAN-BYLANDER PROJECTORs
# l, nproj, debl
    0    2   1.27464
#
# MODEL CORE CHARGE
# icmod, fcfact
    0   0.00000
#
# LOG DERIVATIVE ANALYSIS
# epsh1, epsh2, depsh
   -5.00    3.00    0.02
#
# OUTPUT GRID
# rlmax, drl
    6.00    0.01
#
# TEST CONFIGURATIONS
# ncnf
    0
# nvcnf
#   n    l    f
    </PP_INPUTFILE>
  </PP_INFO>
  <!--                               -->
  <!-- END OF HUMAN READABLE SECTION -->
  <!--                               -->
    <PP_HEADER
       generated="Generated using ONCVPSP code by D. R. Hamann"
       author="anonymous"
       date="241015"
       comment=""
       element="H "
       pseudo_type="NC"
       relativistic="scalar"
       is_ultrasoft="F"
       is_paw="F"
       is_coulomb="F"
       has_so="F"
       has_wfc="F"
       has_gipaw="T"
       core_correction="F"
       functional="PBE"
       z_valence="    1.00"
       total_psenergy="  -4.58772875017E-01"
       rho_cutoff="   6.01000000000E+00"
       l_max="0"
       l_local="-1"
       mesh_size="   602"
       number_of_wfc="0"
       number_of_proj="2"/>
 <PP_MESH>
   <PP_R type="real"  size=" 602" columns="8">
    0.0000    0.0100    0.0200    0.0300    0.0400    0.0500    0.0600    0.0700
    0.0800    0.0900    0.1000    0.1100    0.1200    0.1300    0.1400    0.1500
    0.1600    0.1700    0.1800    0.1900    0.2000    0.2100    0.2200    0.2300
    0.2400    0.2500    0.2600    0.2700    0.2800    0.2900    0.3000    0.3100
    0.3200    0.3300    0.3400    0.3500    0.3600    0.3700    0.3800    0.3900
    0.4000    0.4100    0.4200    0.4300    0.4400    0.4500    0.4600    0.4700
    0.4800    0.4900    0.5000    0.5100    0.5200    0.5300    0.5400    0.5500
    0.5600    0.5700    0.5800    0.5900    0.6000    0.6100    0.6200    0.6300
    0.6400    0.6500    0.6600    0.6700    0.6800    0.6900    0.7000    0.7100
    0.7200    0.7300    0.7400    0.7500    0.7600    0.7700    0.7800    0.7900
    0.8000    0.8100    0.8200    0.8300    0.8400    0.8500    0.8600    0.8700
    0.8800    0.8900    0.9000    0.9100    0.9200    0.9300    0.9400    0.9500
    0.9600    0.9700    0.9800    0.9900    1.0000    1.0100    1.0200    1.0300
    1.0400    1.0500    1.0600    1.0700    1.0800    1.0900    1.1000    1.1100
    1.1200    1.1300    1.1400    1.1500    1.1600    1.1700    1.1800    1.1900
    1.2000    1.2100    1.2200    1.2300    1.2400    1.2500    1.2600    1.2700
    1.2800    1.2900    1.3000    1.3100    1.3200    1.3300    1.3400    1.3500
    1.3600    1.3700    1.3800    1.3900    1.4000    1.4100    1.4200    1.4300
    1.4400    1.4500    1.4600    1.4700    1.4800    1.4900    1.5000    1.5100
    1.5200    1.5300    1.5400    1.5500    1.5600    1.5700    1.5800    1.5900
    1.6000    1.6100    1.6200    1.6300    1.6400    1.6500    1.6600    1.6700
    1.6800    1.6900    1.7000    1.7100    1.7200    1.7300    1.7400    1.7500
    1.7600    1.7700    1.7800    1.7900    1.8000    1.8100    1.8200    1.8300
    1.8400    1.8500    1.8600    1.8700    1.8800    1.8900    1.9000    1.9100
    1.9200    1.9300    1.9400    1.9500    1.9600    1.9700    1.9800    1.9900
    2.0000    2.0100    2.0200    2.0300    2.0400    2.0500    2.0600    2.0700
    2.0800    2.0900    2.1000    2.1100    2.1200    2.1300    2.1400    2.1500
    2.1600    2.1700    2.1800    2.1900    2.2000    2.2100    2.2200    2.2300
    2.2400    2.2500    2.2600    2.2700    2.2800    2.2900    2.3000    2.3100
    2.3200    2.3300    2.3400    2.3500    2.3600    2.3700    2.3800    2.3900
    2.4000    2.4100    2.4200    2.4300    2.4400    2.4500    2.4600    2.4700
    2.4800    2.4900    2.5000    2.5100    2.5200    2.5300    2.5400    2.5500
    2.5600    2.5700    2.5800    2.5900    2.6000    2.6100    2.6200    2.6300
    2.6400    2.6500    2.6600    2.6700    2.6800    2.6900    2.7000    2.7100
    2.7200    2.7300    2.7400    2.7500    2.7600    2.7700    2.7800    2.7900
    2.8000    2.8100    2.8200    2.8300    2.8400    2.8500    2.8600    2.8700
    2.8800    2.8900    2.9000    2.9100    2.9200    2.9300    2.9400    2.9500
    2.9600    2.9700    2.9800    2.9900    3.0000    3.0100    3.0200    3.0300
    3.0400    3.0500    3.0600    3.0700    3.0800    3.0900    3.1000    3.1100
    3.1200    3.1300    3.1400    3.1500    3.1600    3.1700    3.1800    3.1900
    3.2000    3.2100    3.2200    3.2300    3.2400    3.2500    3.2600    3.2700
    3.2800    3.2900    3.3000    3.3100    3.3200    3.3300    3.3400    3.3500
    3.3600    3.3700    3.3800    3.3900    3.4000    3.4100    3.4200    3.4300
    3.4400    3.4500    3.4600    3.4700    3.4800    3.4900    3.5000    3.5100
    3.5200    3.5300    3.5400    3.5500    3.5600    3.5700    3.5800    3.5900
    3.6000    3.6100    3.6200    3.6300    3.6400    3.6500    3.6600    3.6700
    3.6800    3.6900    3.7000    3.7100    3.7200    3.7300    3.7400    3.7500
    3.7600    3.7700    3.7800    3.7900    3.8000    3.8100    3.8200    3.8300
    3.8400    3.8500    3.8600    3.8700    3.8800    3.8900    3.9000    3.9100
    3.9200    3.9300    3.9400    3.9500    3.9600    3.9700    3.9800    3.9900
    4.0000    4.0100    4.0200    4.0300    4.0400    4.0500    4.0600    4.0700
    4.0800    4.0900    4.1000    4.1100    4.1200    4.1300    4.1400    4.1500
    4.1600    4.1700    4.1800    4.1900    4.2000    4.2100    4.2200    4.2300
    4.2400    4.2500    4.2600    4.2700    4.2800    4.2900    4.3000    4.3100
    4.3200    4.3300    4.3400    4.3500    4.3600    4.3700    4.3800    4.3900
    4.4000    4.4100    4.4200    4.4300    4.4400    4.4500    4.4600    4.4700
    4.4800    4.4900    4.5000    4.5100    4.5200    4.5300    4.5400    4.5500
    4.5600    4.5700    4.5800    4.5900    4.6000    4.6100    4.6200    4.6300
    4.6400    4.6500    4.6600    4.6700    4.6800    4.6900    4.7000    4.7100
    4.7200    4.7300    4.7400    4.7500    4.7600    4.7700    4.7800    4.7900
    4.8000    4.8100    4.8200    4.8300    4.8400    4.8500    4.8600    4.8700
    4.8800    4.8900    4.9000    4.9100    4.9200    4.9300    4.9400    4.9500
    4.9600    4.9700    4.9800    4.9900    5.0000    5.0100    5.0200    5.0300
    5.0400    5.0500    5.0600    5.0700    5.0800    5.0900    5.1000    5.1100
    5.1200    5.1300    5.1400    5.1500    5.1600    5.1700    5.1800    5.1900
    5.2000    5.2100    5.2200    5.2300    5.2400    5.2500    5.2600    5.2700
    5.2800    5.2900    5.3000    5.3100    5.3200    5.3300    5.3400    5.3500
    5.3600    5.3700    5.3800    5.3900    5.4000    5.4100    5.4200    5.4300
    5.4400    5.4500    5.4600    5.4700    5.4800    5.4900    5.5000    5.5100
    5.5200    5.5300    5.5400    5.5500    5.5600    5.5700    5.5800    5.5900
    5.6000    5.6100    5.6200    5.6300    5.6400    5.6500    5.6600    5.6700
    5.6800    5.6900    5.7000    5.7100    5.7200    5.7300    5.7400    5.7500
    5.7600    5.7700    5.7800    5.7900    5.8000    5.8100    5.8200    5.8300
    5.8400    5.8500    5.8600    5.8700    5.8800    5.8900    5.9000    5.9100
    5.9200    5.9300    5.9400    5.9500    5.9600    5.9700    5.9800    5.9900
    6.0000    6.0100
   </PP_R>
   <PP_RAB type="real"  size=" 602" columns="8">
    0.0100    0.0100    0.0100    0.0100    0.0100    0.0100    0.0100    0.0100
    0.0100    0.0100    0.0100    0.0100    0.0100    0.0100    0.0100    0.0100
    0.0100    0.0100    0.0100    0.0100    0.0100    0.0100    0.0100    0.0100
    0.0100    0.0100    0.0100    0.0100    0.0100    0.0100    0.0100    0.0100
    0.0100    0.0100    0.0100    0.0100    0.0100    0.0100    0.0100    0.0100
    0.0100    0.0100    0.0100    0.0100    0.0100    0.0100    0.0100    0.0100
    0.0100    0.0100    0.0100    0.0100    0.0100    0.0100    0.0100    0.0100
    0.0100    0.0100    0.0100    0.0100    0.0100    0.0100    0.0100    0.0100
    0.0100    0.0100    0.0100    0.0100    0.0100    0.0100    0.0100    0.0100
    0.0100    0.0100    0.0100    0.0100    0.0100    0.0100    0.0100    0.0100
    0.0100    0.0100    0.0100    0.0100    0.0100    0.0100    0.0100    0.0100
    0.0100    0.0100    0.0100    0.0100    0.0100    0.0100    0.0100    0.0100
    0.0100    0.0100    0.0100    0.0100    0.0100    0.0100    0.0100    0.0100
    0.0100    0.0100    0.0100    0.0100    0.0100    0.0100    0.0100    0.0100
    0.0100    0.0100    0.0100    0.0100    0.0100    0.0100    0.0100    0.0100
    0.0100    0.0100    0.0100    0.0100    0.0100    0.0100    0.0100    0.0100
    0.0100    0.0100    0.0100    0.0100    0.0100    0.0100    0.0100    0.0100
    0.0100    0.0100    0.0100    0.0100    0.0100    0.0100    0.0100    0.0100
    0.0100    0.0100    0.0100    0.0100    0.0100    0.0100    0.0100    0.0100
    0.0100    0.0100    0.0100    0.0100    0.0100    0.0100    0.0100    0.0100
    0.0100    0.0100    0.0100    0.0100    0.0100    0.0100    0.0100    0.0100
    0.0100    0.0100    0.0100    0.0100    0.0100    0.0100    0.0100    0.0100
    0.0100    0.0100    0.0100    0.0100    0.0100    0.0100    0.0100    0.0100
    0.0100    0.0100    0.0100    0.0100    0.0100    0.0100    0.0100    0.0100
    0.0100    0.0100    0.0100    0.0100    0.0100    0.0100    0.0100    0.0100
    0.0100    0.0100    0.0100    0.0100    0.0100    0.0100    0.0100    0.0100
    0.0100    0.0100    0.0100    0.0100    0.0100    0.0100    0.0100    0.0100
    0.0100    0.0100    0.0100    0.0100    0.0100    0.0100    0.0100    0.0100
    0.0100    0.0100    0.0100    0.0100    0.0100    0.0100    0.0100    0.0100
    0.0100    0.0100    0.0100    0.0100    0.0100    0.0100    0.0100    0.0100
    0.0100    0.0100    0.0100    0.0100    0.0100    0.0100    0.0100    0.0100
    0.0100    0.0100    0.0100    0.0100    0.0100    0.0100    0.0100    0.0100
    0.0100    0.0100    0.0100    0.0100    0.0100    0.0100    0.0100    0.0100
    0.0100    0.0100    0.0100    0.0100    0.0100    0.0100    0.0100    0.0100
    0.0100    0.0100    0.0100    0.0100    0.0100    0.0100    0.0100    0.0100
    0.0100    0.0100    0.0100    0.0100    0.0100    0.0100    0.0100    0.0100
    0.0100    0.0100    0.0100    0.0100    0.0100    0.0100    0.0100    0.0100
    0.0100    0.0100    0.0100    0.0100    0.0100    0.0100    0.0100    0.0100
    0.0100    0.0100    0.0100    0.0100    0.0100    0.0100    0.0100    0.0100
    0.0100    0.0100    0.0100    0.0100    0.0100    0.0100    0.0100    0.0100
    0.0100    0.0100    0.0100    0.0100    0.0100    0.0100    0.0100    0.0100
    0.0100    0.0100    0.0100    0.0100    0.0100    0.0100    0.0100    0.0100
    0.0100    0.0100    0.0100    0.0100    0.0100    0.0100    0.0100    0.0100
    0.0100    0.0100    0.0100    0.0100    0.0100    0.0100    0.0100    0.0100
    0.0100    0.0100    0.0100    0.0100    0.0100    0.0100    0.0100    0.0100
    0.0100    0.0100    0.0100    0.0100    0.0100    0.0100    0.0100    0.0100
    0.0100    0.0100    0.0100    0.0100    0.0100    0.0100    0.0100    0.0100
    0.0100    0.0100    0.0100    0.0100    0.0100    0.0100    0.0100    0.0100
    0.0100    0.0100    0.0100    0.0100    0.0100    0.0100    0.0100    0.0100
    0.0100    0.0100    0.0100    0.0100    0.0100    0.0100    0.0100    0.0100
    0.0100    0.0100    0.0100    0.0100    0.0100    0.0100    0.0100    0.0100
    0.0100    0.0100    0.0100    0.0100    0.0100    0.0100    0.0100    0.0100
    0.0100    0.0100    0.0100    0.0100    0.0100    0.0100    0.0100    0.0100
    0.0100    0.0100    0.0100    0.0100    0.0100    0.0100    0.0100    0.0100
    0.0100    0.0100    0.0100    0.0100    0.0100    0.0100    0.0100    0.0100
    0.0100    0.0100    0.0100    0.0100    0.0100    0.0100    0.0100    0.0100
    0.0100    0.0100    0.0100    0.0100    0.0100    0.0100    0.0100    0.0100
    0.0100    0.0100    0.0100    0.0100    0.0100    0.0100    0.0100    0.0100
    0.0100    0.0100    0.0100    0.0100    0.0100    0.0100    0.0100    0.0100
    0.0100    0.0100    0.0100    0.0100    0.0100    0.0100    0.0100    0.0100
    0.0100    0.0100    0.0100    0.0100    0.0100    0.0100    0.0100    0.0100
    0.0100    0.0100    0.0100    0.0100    0.0100    0.0100    0.0100    0.0100
    0.0100    0.0100    0.0100    0.0100    0.0100    0.0100    0.0100    0.0100
    0.0100    0.0100    0.0100    0.0100    0.0100    0.0100    0.0100    0.0100
    0.0100    0.0100    0.0100    0.0100    0.0100    0.0100    0.0100    0.0100
    0.0100    0.0100    0.0100    0.0100    0.0100    0.0100    0.0100    0.0100
    0.0100    0.0100    0.0100    0.0100    0.0100    0.0100    0.0100    0.0100
    0.0100    0.0100    0.0100    0.0100    0.0100    0.0100    0.0100    0.0100
    0.0100    0.0100    0.0100    0.0100    0.0100    0.0100    0.0100    0.0100
    0.0100    0.0100    0.0100    0.0100    0.0100    0.0100    0.0100    0.0100
    0.0100    0.0100    0.0100    0.0100    0.0100    0.0100    0.0100    0.0100
    0.0100    0.0100    0.0100    0.0100    0.0100    0.0100    0.0100    0.0100
    0.0100    0.0100    0.0100    0.0100    0.0100    0.0100    0.0100    0.0100
    0.0100    0.0100    0.0100    0.0100    0.0100    0.0100    0.0100    0.0100
    0.0100    0.0100    0.0100    0.0100    0.0100    0.0100    0.0100    0.0100
    0.0100    0.0100
   </PP_RAB>
 </PP_MESH>
  <PP_LOCAL type="real"  size=" 602" columns="4">
   -9.0610437665E+00   -9.0568179547E+00   -9.0440368530E+00   -9.0228074346E+00
   -8.9932366728E+00   -8.9554713961E+00   -8.9096955193E+00   -8.8561267788E+00
   -8.7950131322E+00   -8.7266289955E+00   -8.6512714814E+00   -8.5692567815E+00
   -8.4809168069E+00   -8.3865961671E+00   -8.2866495348E+00   -8.1814394128E+00
   -8.0713342890E+00   -7.9567071505E+00   -7.8379343048E+00   -7.7153944547E+00
   -7.5894679623E+00   -7.4605362444E+00   -7.3289812402E+00   -7.1951849015E+00
   -7.0595286613E+00   -6.9223928426E+00   -6.7841559860E+00   -6.6451940611E+00
   -6.5058795632E+00   -6.3665804736E+00   -6.2276590824E+00   -6.0894706728E+00
   -5.9523620817E+00   -5.8166700816E+00   -5.6827197005E+00   -5.5508223645E+00
   -5.4212739538E+00   -5.2943527014E+00   -5.1703170902E+00   -5.0494035403E+00
   -4.9318240187E+00   -4.8177636487E+00   -4.7073781565E+00   -4.6007912589E+00
   -4.4980919765E+00   -4.3993318732E+00   -4.3045222272E+00   -4.2136312134E+00
   -4.1265808605E+00   -4.0432438374E+00   -3.9634411590E+00   -3.8869595064E+00
   -3.8135916023E+00   -3.7431452941E+00   -3.6754419748E+00   -3.6103158907E+00
   -3.5476125181E+00   -3.4871882091E+00   -3.4289088466E+00   -3.3726496295E+00
   -3.3182938607E+00   -3.2657329154E+00   -3.2148652695E+00   -3.1655961918E+00
   -3.1178374335E+00   -3.0715065945E+00   -3.0265268915E+00   -2.9828269548E+00
   -2.9403403442E+00   -2.8990053188E+00   -2.8587646531E+00   -2.8195654256E+00
   -2.7813586957E+00   -2.7440993330E+00   -2.7077458097E+00   -2.6722599696E+00
   -2.6376068988E+00   -2.6037546666E+00   -2.5706741109E+00   -2.5383386429E+00
   -2.5067240362E+00   -2.4758082143E+00   -2.4455710354E+00   -2.4159940785E+00
   -2.3870604303E+00   -2.3587544755E+00   -2.3310616932E+00   -2.3039684604E+00
   -2.2774618664E+00   -2.2515295388E+00   -2.2261594843E+00   -2.2013399461E+00
   -2.1770592791E+00   -2.1533058441E+00   -2.1300679226E+00   -2.1073336580E+00
   -2.0850909954E+00   -2.0633276674E+00   -2.0420311892E+00   -2.0211888715E+00
   -2.0007878496E+00   -1.9808151272E+00   -1.9612576275E+00   -1.9421022557E+00
   -1.9233359852E+00   -1.9049459279E+00   -1.8869194114E+00   -1.8692440280E+00
   -1.8519077546E+00   -1.8348990301E+00   -1.8182067761E+00   -1.8018204402E+00
   -1.7857300225E+00   -1.7699262307E+00   -1.7544003587E+00   -1.7391444068E+00
   -1.7241513910E+00   -1.7094149041E+00   -1.6949283914E+00   -1.6806851418E+00
   -1.6666793119E+00   -1.6529050288E+00   -1.6393565372E+00   -1.6260283355E+00
   -1.6129151225E+00   -1.6000117236E+00   -1.5873131231E+00   -1.5748145186E+00
   -1.5625112075E+00   -1.5503986290E+00   -1.5384724173E+00   -1.5267282809E+00
   -1.5151620774E+00   -1.5037698221E+00   -1.4925475838E+00   -1.4814916063E+00
   -1.4705982343E+00   -1.4598638620E+00   -1.4492850817E+00   -1.4388585096E+00
   -1.4285808834E+00   -1.4184490612E+00   -1.4084599114E+00   -1.3986104920E+00
   -1.3888978631E+00   -1.3793192009E+00   -1.3698717674E+00   -1.3605528496E+00
   -1.3513598874E+00   -1.3422902990E+00   -1.3333416549E+00   -1.3245115294E+00
   -1.3157975913E+00   -1.3071975681E+00   -1.2987092221E+00   -1.2903304217E+00
   -1.2820590200E+00   -1.2738930123E+00   -1.2658303454E+00   -1.2578691202E+00
   -1.2500073905E+00   -1.2422433402E+00   -1.2345751282E+00   -1.2270010179E+00
   -1.2195192646E+00   -1.2121282090E+00   -1.2048261947E+00   -1.1976116375E+00
   -1.1904829614E+00   -1.1834386556E+00   -1.1764772175E+00   -1.1695972076E+00
   -1.1627971899E+00   -1.1560757951E+00   -1.1494316471E+00   -1.1428634453E+00
   -1.1363698679E+00   -1.1299496816E+00   -1.1236016133E+00   -1.1173244954E+00
   -1.1111170992E+00   -1.1049783153E+00   -1.0989069715E+00   -1.0929019972E+00
   -1.0869622832E+00   -1.0810867896E+00   -1.0752744716E+00   -1.0695243151E+00
   -1.0638353388E+00   -1.0582065507E+00   -1.0526370315E+00   -1.0471258093E+00
   -1.0416720144E+00   -1.0362747228E+00   -1.0309330807E+00   -1.0256462248E+00
   -1.0204133106E+00   -1.0152335359E+00   -1.0101060634E+00   -1.0050301401E+00
   -1.0000049637E+00   -9.9502979509E-01   -9.9010388851E-01   -9.8522650357E-01
   -9.8039695185E-01   -9.7561449876E-01   -9.7087848954E-01   -9.6618823634E-01
   -9.6154307710E-01   -9.5694238357E-01   -9.5238548543E-01   -9.4787179444E-01
   -9.4340068217E-01   -9.3897154787E-01   -9.3458382085E-01   -9.3023689120E-01
   -9.2593022219E-01   -9.2166324613E-01   -9.1743540868E-01   -9.1324619441E-01
   -9.0909505087E-01   -9.0498147930E-01   -9.0090497410E-01   -8.9686501466E-01
   -8.9286113810E-01   -8.8889284781E-01   -8.8495967059E-01   -8.8106115838E-01
   -8.7719683073E-01   -8.7336625732E-01   -8.6956900186E-01   -8.6580460671E-01
   -8.6207267365E-01   -8.5837277570E-01   -8.5470449113E-01   -8.5106743638E-01
   -8.4746119942E-01   -8.4388539100E-01   -8.4033964141E-01   -8.3682355391E-01
   -8.3333676803E-01   -8.2987892766E-01   -8.2644965156E-01   -8.2304860443E-01
   -8.1967544373E-01   -8.1632980376E-01   -8.1301137111E-01   -8.0971981658E-01
   -8.0645479078E-01   -8.0321599829E-01   -8.0000312318E-01   -7.9681583369E-01
   -7.9365384813E-01   -7.9051686527E-01   -7.8740456837E-01   -7.8431668933E-01
   -7.8125294168E-01   -7.7821302127E-01   -7.7519667348E-01   -7.7220362543E-01
   -7.6923358691E-01   -7.6628631304E-01   -7.6336154485E-01   -7.6045900684E-01
   -7.5757846087E-01   -7.5471966219E-01   -7.5188235010E-01   -7.4906629106E-01
   -7.4627125457E-01   -7.4349699490E-01   -7.4074328112E-01   -7.3800989688E-01
   -7.3529661161E-01   -7.3260319526E-01   -7.2992944542E-01   -7.2727514676E-01
   -7.2464006884E-01   -7.2202402266E-01   -7.1942680330E-01   -7.1684819374E-01
   -7.1428800302E-01   -7.1174604063E-01   -7.0922210470E-01   -7.0671599946E-01
   -7.0422754882E-01   -7.0175656649E-01   -6.9930285091E-01   -6.9686623967E-01
   -6.9444655518E-01   -6.9204361057E-01   -6.8965723549E-01   -6.8728726732E-01
   -6.8493353479E-01   -6.8259585830E-01   -6.8027408946E-01   -6.7796806685E-01
   -6.7567761967E-01   -6.7340259452E-01   -6.7114284334E-01   -6.6889821110E-01
   -6.6666853235E-01   -6.6445367342E-01   -6.6225348757E-01   -6.6006782094E-01
   -6.5789652969E-01   -6.5573948134E-01   -6.5359653600E-01   -6.5146754198E-01
   -6.4935237457E-01   -6.4725090244E-01   -6.4516298962E-01   -6.4308849538E-01
   -6.4102730352E-01   -6.3897928686E-01   -6.3694431189E-01   -6.3492225321E-01
   -6.3291299680E-01   -6.3091642140E-01   -6.2893239660E-01   -6.2696081023E-01
   -6.2500155066E-01   -6.2305450228E-01   -6.2111953834E-01   -6.1919655775E-01
   -6.1728545169E-01   -6.1538610940E-01   -6.1349840981E-01   -6.1162225937E-01
   -6.0975755301E-01   -6.0790418385E-01   -6.0606203900E-01   -6.0423102851E-01
   -6.0241105218E-01   -6.0060200743E-01   -5.9880378790E-01   -5.9701630749E-01
   -5.9523947069E-01   -5.9347317956E-01   -5.9171733269E-01   -5.8997184816E-01
   -5.8823663490E-01   -5.8651159997E-01   -5.8479664543E-01   -5.8309169383E-01
   -5.8139665833E-01   -5.7971145131E-01   -5.7803597694E-01   -5.7637016248E-01
   -5.7471392514E-01   -5.7306718215E-01   -5.7142984084E-01   -5.6980183110E-01
   -5.6818307476E-01   -5.6657349289E-01   -5.6497299874E-01   -5.6338152111E-01
   -5.6179898754E-01   -5.6022532279E-01   -5.5866044633E-01   -5.5710428471E-01
   -5.5555677140E-01   -5.5401783464E-01   -5.5248740049E-01   -5.5096539222E-01
   -5.4945174929E-01   -5.4794640331E-01   -5.4644928588E-01   -5.4496032010E-01
   -5.4347944752E-01   -5.4200660421E-01   -5.4054172497E-01   -5.3908473990E-01
   -5.3763558480E-01   -5.3619420258E-01   -5.3476053107E-01   -5.3333450778E-01
   -5.3191606202E-01   -5.3050514339E-01   -5.2910169262E-01   -5.2770565043E-01
   -5.2631695259E-01   -5.2493554186E-01   -5.2356136607E-01   -5.2219436872E-01
   -5.2083449329E-01   -5.1948167463E-01   -5.1813586722E-01   -5.1679701735E-01
   -5.1546507114E-01   -5.1413997141E-01   -5.1282166293E-01   -5.1151009987E-01
   -5.1020523087E-01   -5.0890700456E-01   -5.0761536348E-01   -5.0633026144E-01
   -5.0505165203E-01   -5.0377948626E-01   -5.0251371517E-01   -5.0125428164E-01
   -5.0000114695E-01   -4.9875426449E-01   -4.9751358758E-01   -4.9627906774E-01
   -4.9505065408E-01   -4.9382830847E-01   -4.9261198641E-01   -4.9140164337E-01
   -4.9019723176E-01   -4.8899870589E-01   -4.8780602831E-01   -4.8661915658E-01
   -4.8543804825E-01   -4.8426265702E-01   -4.8309294119E-01   -4.8192886433E-01
   -4.8077038597E-01   -4.7961746566E-01   -4.7847005879E-01   -4.7732812642E-01
   -4.7619163356E-01   -4.7506054163E-01   -4.7393481204E-01   -4.7281440223E-01
   -4.7169927496E-01   -4.7058939701E-01   -4.6948473158E-01   -4.6838524190E-01
   -4.6729088781E-01   -4.6620163267E-01   -4.6511744539E-01   -4.6403829091E-01
   -4.6296413415E-01   -4.6189493769E-01   -4.6083066452E-01   -4.5977128600E-01
   -4.5871676871E-01   -4.5766707920E-01   -4.5662218308E-01   -4.5558204211E-01
   -4.5454663036E-01   -4.5351591594E-01   -4.5248986700E-01   -4.5146845163E-01
   -4.5045163205E-01   -4.4943938275E-01   -4.4843167416E-01   -4.4742847591E-01
   -4.4642975759E-01   -4.4543548505E-01   -4.4444562951E-01   -4.4346016491E-01
   -4.4247906229E-01   -4.4150229265E-01   -4.4052982584E-01   -4.3956162903E-01
   -4.3859767986E-01   -4.3763795070E-01   -4.3668241393E-01   -4.3573104192E-01
   -4.3478380238E-01   -4.3384067158E-01   -4.3290162488E-01   -4.3196663593E-01
   -4.3103567840E-01   -4.3010872454E-01   -4.2918574490E-01   -4.2826671914E-01
   -4.2735162215E-01   -4.2644042883E-01   -4.2553311405E-01   -4.2462964878E-01
   -4.2373001042E-01   -4.2283417719E-01   -4.2194212513E-01   -4.2105383031E-01
   -4.2016926877E-01   -4.1928841079E-01   -4.1841123932E-01   -4.1753773154E-01
   -4.1666786462E-01   -4.1580161574E-01   -4.1493896037E-01   -4.1407987360E-01
   -4.1322433774E-01   -4.1237233103E-01   -4.1152383171E-01   -4.1067881802E-01
   -4.0983726529E-01   -4.0899915239E-01   -4.0816446135E-01   -4.0733317142E-01
   -4.0650526184E-01   -4.0568071187E-01   -4.0485949712E-01   -4.0404159922E-01
   -4.0322700028E-01   -4.0241568051E-01   -4.0160762013E-01   -4.0080279936E-01
   -4.0000119444E-01   -3.9920278882E-01   -3.9840756506E-01   -3.9761550429E-01
   -3.9682658766E-01   -3.9604079630E-01   -3.9525810743E-01   -3.9447850542E-01
   -3.9370197363E-01   -3.9292849408E-01   -3.9215804879E-01   -3.9139061977E-01
   -3.9062618552E-01   -3.8986473052E-01   -3.8910623925E-01   -3.8835069457E-01
   -3.8759807933E-01   -3.8684837640E-01   -3.8610156585E-01   -3.8535763147E-01
   -3.8461655919E-01   -3.8387833266E-01   -3.8314293554E-01   -3.8241035148E-01
   -3.8168056246E-01   -3.8095355084E-01   -3.8022930425E-01   -3.7950780712E-01
   -3.7878904386E-01   -3.7807299889E-01   -3.7735965635E-01   -3.7664899651E-01
   -3.7594100897E-01   -3.7523567887E-01   -3.7453299136E-01   -3.7383293157E-01
   -3.7313548465E-01   -3.7244063248E-01   -3.7174836252E-01   -3.7105866202E-01
   -3.7037151682E-01   -3.6968691276E-01   -3.6900483566E-01   -3.6832527016E-01
   -3.6764820011E-01   -3.6697361536E-01   -3.6630150240E-01   -3.6563184773E-01
   -3.6496463784E-01   -3.6429985924E-01   -3.6363749507E-01   -3.6297753451E-01
   -3.6231996581E-01   -3.6166477609E-01   -3.6101195247E-01   -3.6036148208E-01
   -3.5971335135E-01   -3.5906754455E-01   -3.5842405304E-01   -3.5778286454E-01
   -3.5714396678E-01   -3.5650734749E-01   -3.5587299438E-01   -3.5524089309E-01
   -3.5461103153E-01   -3.5398340017E-01   -3.5335798731E-01   -3.5273478124E-01
   -3.5211377027E-01   -3.5149494269E-01   -3.5087828373E-01   -3.5026378405E-01
   -3.4965143359E-01   -3.4904122118E-01   -3.4843313568E-01   -3.4782716592E-01
   -3.4722330074E-01   -3.4662152534E-01   -3.4602183228E-01   -3.4542421132E-01
   -3.4482865181E-01   -3.4423514312E-01   -3.4364367461E-01   -3.4305423563E-01
   -3.4246681166E-01   -3.4188139641E-01   -3.4129797977E-01   -3.4071655159E-01
   -3.4013710172E-01   -3.3955962003E-01   -3.3898409638E-01   -3.3841051680E-01
   -3.3783887542E-01   -3.3726916258E-01   -3.3670136861E-01   -3.3613548385E-01
   -3.3557149861E-01   -3.3500940324E-01   -3.3444918462E-01   -3.3389083661E-01
   -3.3333435031E-01   -3.3277971650E-01
  </PP_LOCAL>
 <PP_NONLOCAL>
   <PP_BETA.1
       type="real"
       size=" 602"
       columns="4"
       index="1"
       angular_momentum="0"
       cutoff_radius_index=" 118"
       cutoff_radius="    1.1700000000E+00" >
    0.0000000000E+00   -2.6088547832E-01   -5.1833275176E-01   -7.6895641509E-01
   -1.0094757693E+00   -1.2367649574E+00   -1.4479004847E+00   -1.6402053227E+00
   -1.8112888593E+00   -1.9590820304E+00   -2.0818670532E+00   -2.1783012794E+00
   -2.2474347883E+00   -2.2887214554E+00   -2.3020233406E+00   -2.2876083703E+00
   -2.2461413924E+00   -2.1786688135E+00   -2.0865971335E+00   -1.9716657939E+00
   -1.8359149024E+00   -1.6816483484E+00   -1.5113931407E+00   -1.3278555968E+00
   -1.1338753356E+00   -9.3237752436E-01   -7.2632511226E-01   -5.1867056290E-01
   -3.1230938175E-01   -1.1003521171E-01    8.5502306669E-02    2.7183625217E-01
    4.4671681242E-01    6.0814210177E-01    7.5438237422E-01    8.8400017585E-01
    9.9586418611E-01    1.0891579373E+00    1.1633817734E+00    1.2183503832E+00
    1.2541844905E+00    1.2712971803E+00    1.2703761359E+00    1.2523616866E+00
    1.2184214371E+00    1.1699221709E+00    1.1083997754E+00    1.0355281519E+00
    9.5308746456E-01    8.6293238003E-01    7.6696229679E-01    6.6708586275E-01
    5.6517141140E-01    4.6301272413E-01    3.6230361308E-01    2.6460358070E-01
    1.7132728707E-01    8.3714909358E-02    2.8301276209E-03   -7.0461837006E-02
   -1.3548563082E-01   -1.9177101467E-01   -2.3903861681E-01   -2.7719762410E-01
   -3.0633811465E-01   -3.2671238797E-01   -3.3872208073E-01   -3.4290132909E-01
   -3.3989413605E-01   -3.3043491226E-01   -3.1532726193E-01   -2.9542143641E-01
   -2.7159339445E-01   -2.4472437439E-01   -2.1568159543E-01   -1.8530141730E-01
   -1.5437122439E-01   -1.2361700080E-01   -9.3692522440E-02   -6.5170116753E-02
   -3.8534340795E-02   -1.4178192523E-02    7.5982075237E-03    2.6586585373E-02
    4.2667307168E-02    5.5804216284E-02    6.6037771103E-02    7.3476770267E-02
    7.8288973602E-02    8.0690939478E-02    8.0937403367E-02    7.9310517695E-02
    7.6109259804E-02    7.1639293501E-02    6.6203540288E-02    6.0094664933E-02
    5.3585177050E-02    4.6922883090E-02    4.0325962700E-02    3.3979457441E-02
    2.8033277032E-02    2.2601545826E-02    1.7764693242E-02    1.3566270690E-02
    1.0019934772E-02    7.1127553942E-03    4.8089619846E-03    3.0547068685E-03
    1.7812645115E-03    9.1198301875E-04    3.6682697939E-04    6.5692478280E-05
   -6.8632329362E-05   -1.1027978574E-04   -8.4781788412E-05   -7.5466101355E-06
    5.5046718822E-06    0.0000000000E+00    0.0000000000E+00    0.0000000000E+00
    0.0000000000E+00    0.0000000000E+00    0.0000000000E+00    0.0000000000E+00
    0.0000000000E+00    0.0000000000E+00    0.0000000000E+00    0.0000000000E+00
    0.0000000000E+00    0.0000000000E+00    0.0000000000E+00    0.0000000000E+00
    0.0000000000E+00    0.0000000000E+00    0.0000000000E+00    0.0000000000E+00
    0.0000000000E+00    0.0000000000E+00    0.0000000000E+00    0.0000000000E+00
    0.0000000000E+00    0.0000000000E+00    0.0000000000E+00    0.0000000000E+00
    0.0000000000E+00    0.0000000000E+00    0.0000000000E+00    0.0000000000E+00
    0.0000000000E+00    0.0000000000E+00    0.0000000000E+00    0.0000000000E+00