<UPF version="2.0.1">
  <PP_INFO>

 This pseudopotential file has been produced using the code
 ONCVPSP  (Optimized Norm-Conservinng Vanderbilt PSeudopotential)
 scalar-relativistic version 2.1.1, 03/26/2014 by D. R. Hamann
 The code is available through a link at URL www.mat-simresearch.com.
 Documentation with the package provides a full discription of the
 input data below.


 While it is not required under the terms of the GNU GPL, it is
 suggested that you cite D. R. Hamann, Phys. Rev. B 88, 085117 (2013)
 in any publication using these pseudopotentials.

    <PP_INPUTFILE>
# ATOM AND REFERENCE CONFIGURATION
# atsym  z    nc    nv    iexc   psfile
  Hf 72.00    10     4     4      upf
#
#   n    l    f        energy (Ha)
    1    0    2.00
    2    0    2.00
    2    1    6.00
    3    0    2.00
    3    1    6.00
    3    2   10.00
    4    0    2.00
    4    1    6.00
    4    2   10.00
    4    3   14.00
    5    0    2.00
    5    1    6.00
    6    0    2.00
    5    2    2.00
#
# PSEUDOPOTENTIAL AND OPTIMIZATION
# lmax
    3
#
#   l,   rc,     ep,   ncon, nbas, qcut
    0   2.97067  -2.46280    5    8   6.63152
    1   2.45452  -1.30732    5    8   5.67672
    2   2.76549  -0.09882    5    8   5.93944
    3   3.95537   0.10102    5    8   4.70824
#
# LOCAL POTENTIAL
# lloc, lpopt,  rc(5),   dvloc0
    4    5   1.50510      0.00000
#
# VANDERBILT-KLEINMAN-BYLANDER PROJECTORs
# l, nproj, debl
    0    2   2.27507
    1    2   1.63703
    2    2   1.51488
    3    2   1.27203
#
# MODEL CORE CHARGE
# icmod, fcfact
    0   0.00000
#
# LOG DERIVATIVE ANALYSIS
# epsh1, epsh2, depsh
   -5.00    3.00    0.02
#
# OUTPUT GRID
# rlmax, drl
    6.00    0.01
#
# TEST CONFIGURATIONS
# ncnf
    0
# nvcnf
#   n    l    f
    </PP_INPUTFILE>
  </PP_INFO>
  <!--                               -->
  <!-- END OF HUMAN READABLE SECTION -->
  <!--                               -->
    <PP_HEADER
       generated="Generated using ONCVPSP code by D. R. Hamann"
       author="anonymous"
       date="241015"
       comment=""
       element="Hf"
       pseudo_type="NC"
       relativistic="scalar"
       is_ultrasoft="F"
       is_paw="F"
       is_coulomb="F"
       has_so="F"
       has_wfc="F"
       has_gipaw="T"
       core_correction="F"
       functional="PBE"
       z_valence="   12.00"
       total_psenergy="  -4.98126491564E+01"
       rho_cutoff="   6.01000000000E+00"
       l_max="3"
       l_local="-1"
       mesh_size="   602"
       number_of_wfc="0"
       number_of_proj="8"/>
 <PP_MESH>
   <PP_R type="real"  size=" 602" columns="8">
    0.0000    0.0100    0.0200    0.0300    0.0400    0.0500    0.0600    0.0700
    0.0800    0.0900    0.1000    0.1100    0.1200    0.1300    0.1400    0.1500
    0.1600    0.1700    0.1800    0.1900    0.2000    0.2100    0.2200    0.2300
    0.2400    0.2500    0.2600    0.2700    0.2800    0.2900    0.3000    0.3100
    0.3200    0.3300    0.3400    0.3500    0.3600    0.3700    0.3800    0.3900
    0.4000    0.4100    0.4200    0.4300    0.4400    0.4500    0.4600    0.4700
    0.4800    0.4900    0.5000    0.5100    0.5200    0.5300    0.5400    0.5500
    0.5600    0.5700    0.5800    0.5900    0.6000    0.6100    0.6200    0.6300
    0.6400    0.6500    0.6600    0.6700    0.6800    0.6900    0.7000    0.7100
    0.7200    0.7300    0.7400    0.7500    0.7600    0.7700    0.7800    0.7900
    0.8000    0.8100    0.8200    0.8300    0.8400    0.8500    0.8600    0.8700
    0.8800    0.8900    0.9000    0.9100    0.9200    0.9300    0.9400    0.9500
    0.9600    0.9700    0.9800    0.9900    1.0000    1.0100    1.0200    1.0300
    1.0400    1.0500    1.0600    1.0700    1.0800    1.0900    1.1000    1.1100
    1.1200    1.1300    1.1400    1.1500    1.1600    1.1700    1.1800    1.1900
    1.2000    1.2100    1.2200    1.2300    1.2400    1.2500    1.2600    1.2700
    1.2800    1.2900    1.3000    1.3100    1.3200    1.3300    1.3400    1.3500
    1.3600    1.3700    1.3800    1.3900    1.4000    1.4100    1.4200    1.4300
    1.4400    1.4500    1.4600    1.4700    1.4800    1.4900    1.5000    1.5100
    1.5200    1.5300    1.5400    1.5500    1.5600    1.5700    1.5800    1.5900
    1.6000    1.6100    1.6200    1.6300    1.6400    1.6500    1.6600    1.6700
    1.6800    1.6900    1.7000    1.7100    1.7200    1.7300    1.7400    1.7500
    1.7600    1.7700    1.7800    1.7900    1.8000    1.8100    1.8200    1.8300
    1.8400    1.8500    1.8600    1.8700    1.8800    1.8900    1.9000    1.9100
    1.9200    1.9300    1.9400    1.9500    1.9600    1.9700    1.9800    1.9900
    2.0000    2.0100    2.0200    2.0300    2.0400    2.0500    2.0600    2.0700
    2.0800    2.0900    2.1000    2.1100    2.1200    2.1300    2.1400    2.1500
    2.1600    2.1700    2.1800    2.1900    2.2000    2.2100    2.2200    2.2300
    2.2400    2.2500    2.2600    2.2700    2.2800    2.2900    2.3000    2.3100
    2.3200    2.3300    2.3400    2.3500    2.3600    2.3700    2.3800    2.3900
    2.4000    2.4100    2.4200    2.4300    2.4400    2.4500    2.4600    2.4700
    2.4800    2.4900    2.5000    2.5100    2.5200    2.5300    2.5400    2.5500
    2.5600    2.5700    2.5800    2.5900    2.6000    2.6100    2.6200    2.6300
    2.6400    2.6500    2.6600    2.6700    2.6800    2.6900    2.7000    2.7100
    2.7200    2.7300    2.7400    2.7500    2.7600    2.7700    2.7800    2.7900
    2.8000    2.8100    2.8200    2.8300    2.8400    2.8500    2.8600    2.8700
    2.8800    2.8900    2.9000    2.9100    2.9200    2.9300    2.9400    2.9500
    2.9600    2.9700    2.9800    2.9900    3.0000    3.0100    3.0200    3.0300
    3.0400    3.0500    3.0600    3.0700    3.0800    3.0900    3.1000    3.1100
    3.1200    3.1300    3.1400    3.1500    3.1600    3.1700    3.1800    3.1900
    3.2000    3.2100    3.2200    3.2300    3.2400    3.2500    3.2600    3.2700
    3.2800    3.2900    3.3000    3.3100    3.3200    3.3300    3.3400    3.3500
    3.3600    3.3700    3.3800    3.3900    3.4000    3.4100    3.4200    3.4300
    3.4400    3.4500    3.4600    3.4700    3.4800    3.4900    3.5000    3.5100
    3.5200    3.5300    3.5400    3.5500    3.5600    3.5700    3.5800    3.5900
    3.6000    3.6100    3.6200    3.6300    3.6400    3.6500    3.6600    3.6700
    3.6800    3.6900    3.7000    3.7100    3.7200    3.7300    3.7400    3.7500
    3.7600    3.7700    3.7800    3.7900    3.8000    3.8100    3.8200    3.8300
    3.8400    3.8500    3.8600    3.8700    3.8800    3.8900    3.9000    3.9100
    3.9200    3.9300    3.9400    3.9500    3.9600    3.9700    3.9800    3.9900
    4.0000    4.0100    4.0200    4.0300    4.0400    4.0500    4.0600    4.0700
    4.0800    4.0900    4.1000    4.1100    4.1200    4.1300    4.1400    4.1500
    4.1600    4.1700    4.1800    4.1900    4.2000    4.2100    4.2200    4.2300
    4.2400    4.2500    4.2600    4.2700    4.2800    4.2900    4.3000    4.3100
    4.3200    4.3300    4.3400    4.3500    4.3600    4.3700    4.3800    4.3900
    4.4000    4.4100    4.4200    4.4300    4.4400    4.4500    4.4600    4.4700
    4.4800    4.4900    4.5000    4.5100    4.5200    4.5300    4.5400    4.5500
    4.5600    4.5700    4.5800    4.5900    4.6000    4.6100    4.6200    4.6300
    4.6400    4.6500    4.6600    4.6700    4.6800    4.6900    4.7000    4.7100
    4.7200    4.7300    4.7400    4.7500    4.7600    4.7700    4.7800    4.7900
    4.8000    4.8100    4.8200    4.8300    4.8400    4.8500    4.8600    4.8700
    4.8800    4.8900    4.9000    4.9100    4.9200    4.9300    4.9400    4.9500
    4.9600    4.9700    4.9800    4.9900    5.0000    5.0100    5.0200    5.0300
    5.0400    5.0500    5.0600    5.0700    5.0800    5.0900    5.1000    5.1100
    5.1200    5.1300    5.1400    5.1500    5.1600    5.1700    5.1800    5.1900
    5.2000    5.2100    5.2200    5.2300    5.2400    5.2500    5.2600    5.2700
    5.2800    5.2900    5.3000    5.3100    5.3200    5.3300    5.3400    5.3500
    5.3600    5.3700    5.3800    5.3900    5.4000    5.4100    5.4200    5.4300
    5.4400    5.4500    5.4600    5.4700    5.4800    5.4900    5.5000    5.5100
    5.5200    5.5300    5.5400    5.5500    5.5600    5.5700    5.5800    5.5900
    5.6000    5.6100    5.6200    5.6300    5.6400    5.6500    5.6600    5.6700
    5.6800    5.6900    5.7000    5.7100    5.7200    5.7300    5.7400    5.7500
    5.7600    5.7700    5.7800    5.7900    5.8000    5.8100    5.8200    5.8300
    5.8400    5.8500    5.8600    5.8700    5.8800    5.8900    5.9000    5.9100
    5.9200    5.9300    5.9400    5.9500    5.9600    5.9700    5.9800    5.9900
    6.0000    6.0100
   </PP_R>
   <PP_RAB type="real"  size=" 602" columns="8">
    0.0100    0.0100    0.0100    0.0100    0.0100    0.0100    0.0100    0.0100
    0.0100    0.0100    0.0100    0.0100    0.0100    0.0100    0.0100    0.0100
    0.0100    0.0100    0.0100    0.0100    0.0100    0.0100    0.0100    0.0100
    0.0100    0.0100    0.0100    0.0100    0.0100    0.0100    0.0100    0.0100
    0.0100    0.0100    0.0100    0.0100    0.0100    0.0100    0.0100    0.0100
    0.0100    0.0100    0.0100    0.0100    0.0100    0.0100    0.0100    0.0100
    0.0100    0.0100    0.0100    0.0100    0.0100    0.0100    0.0100    0.0100
    0.0100    0.0100    0.0100    0.0100    0.0100    0.0100    0.0100    0.0100
    0.0100    0.0100    0.0100    0.0100    0.0100    0.0100    0.0100    0.0100
    0.0100    0.0100    0.0100    0.0100    0.0100    0.0100    0.0100    0.0100
    0.0100    0.0100    0.0100    0.0100    0.0100    0.0100    0.0100    0.0100
    0.0100    0.0100    0.0100    0.0100    0.0100    0.0100    0.0100    0.0100
    0.0100    0.0100    0.0100    0.0100    0.0100    0.0100    0.0100    0.0100
    0.0100    0.0100    0.0100    0.0100    0.0100    0.0100    0.0100    0.0100
    0.0100    0.0100    0.0100    0.0100    0.0100    0.0100    0.0100    0.0100
    0.0100    0.0100    0.0100    0.0100    0.0100    0.0100    0.0100    0.0100
    0.0100    0.0100    0.0100    0.0100    0.0100    0.0100    0.0100    0.0100
    0.0100    0.0100    0.0100    0.0100    0.0100    0.0100    0.0100    0.0100
    0.0100    0.0100    0.0100    0.0100    0.0100    0.0100    0.0100    0.0100
    0.0100    0.0100    0.0100    0.0100    0.0100    0.0100    0.0100    0.0100
    0.0100    0.0100    0.0100    0.0100    0.0100    0.0100    0.0100    0.0100
    0.0100    0.0100    0.0100    0.0100    0.0100    0.0100    0.0100    0.0100
    0.0100    0.0100    0.0100    0.0100    0.0100    0.0100    0.0100    0.0100
    0.0100    0.0100    0.0100    0.0100    0.0100    0.0100    0.0100    0.0100
    0.0100    0.0100    0.0100    0.0100    0.0100    0.0100    0.0100    0.0100
    0.0100    0.0100    0.0100    0.0100    0.0100    0.0100    0.0100    0.0100
    0.0100    0.0100    0.0100    0.0100    0.0100    0.0100    0.0100    0.0100
    0.0100    0.0100    0.0100    0.0100    0.0100    0.0100    0.0100    0.0100
    0.0100    0.0100    0.0100    0.0100    0.0100    0.0100    0.0100    0.0100
    0.0100    0.0100    0.0100    0.0100    0.0100    0.0100    0.0100    0.0100
    0.0100    0.0100    0.0100    0.0100    0.0100    0.0100    0.0100    0.0100
    0.0100    0.0100    0.0100    0.0100    0.0100    0.0100    0.0100    0.0100
    0.0100    0.0100    0.0100    0.0100    0.0100    0.0100    0.0100    0.0100
    0.0100    0.0100    0.0100    0.0100    0.0100    0.0100    0.0100    0.0100
    0.0100    0.0100    0.0100    0.0100    0.0100    0.0100    0.0100    0.0100
    0.0100    0.0100    0.0100    0.0100    0.0100    0.0100    0.0100    0.0100
    0.0100    0.0100    0.0100    0.0100    0.0100    0.0100    0.0100    0.0100
    0.0100    0.0100    0.0100    0.0100    0.0100    0.0100    0.0100    0.0100
    0.0100    0.0100    0.0100    0.0100    0.0100    0.0100    0.0100    0.0100
    0.0100    0.0100    0.0100    0.0100    0.0100    0.0100    0.0100    0.0100
    0.0100    0.0100    0.0100    0.0100    0.0100    0.0100    0.0100    0.0100
    0.0100    0.0100    0.0100    0.0100    0.0100    0.0100    0.0100    0.0100
    0.0100    0.0100    0.0100    0.0100    0.0100    0.0100    0.0100    0.0100
    0.0100    0.0100    0.0100    0.0100    0.0100    0.0100    0.0100    0.0100
    0.0100    0.0100    0.0100    0.0100    0.0100    0.0100    0.0100    0.0100
    0.0100    0.0100    0.0100    0.0100    0.0100    0.0100    0.0100    0.0100
    0.0100    0.0100    0.0100    0.0100    0.0100    0.0100    0.0100    0.0100
    0.0100    0.0100    0.0100    0.0100    0.0100    0.0100    0.0100    0.0100
    0.0100    0.0100    0.0100    0.0100    0.0100    0.0100    0.0100    0.0100
    0.0100    0.0100    0.0100    0.0100    0.0100    0.0100    0.0100    0.0100
    0.0100    0.0100    0.0100    0.0100    0.0100    0.0100    0.0100    0.0100
    0.0100    0.0100    0.0100    0.0100    0.0100    0.0100    0.0100    0.0100
    0.0100    0.0100    0.0100    0.0100    0.0100    0.0100    0.0100    0.0100
    0.0100    0.0100    0.0100    0.0100    0.0100    0.0100    0.0100    0.0100
    0.0100    0.0100    0.0100    0.0100    0.0100    0.0100    0.0100    0.0100
    0.0100    0.0100    0.0100    0.0100    0.0100    0.0100    0.0100    0.0100
    0.0100    0.0100    0.0100    0.0100    0.0100    0.0100    0.0100    0.0100
    0.0100    0.0100    0.0100    0.0100    0.0100    0.0100    0.0100    0.0100
    0.0100    0.0100    0.0100    0.0100    0.0100    0.0100    0.0100    0.0100
    0.0100    0.0100    0.0100    0.0100    0.0100    0.0100    0.0100    0.0100
    0.0100    0.0100    0.0100    0.0100    0.0100    0.0100    0.0100    0.0100
    0.0100    0.0100    0.0100    0.0100    0.0100    0.0100    0.0100    0.0100
    0.0100    0.0100    0.0100    0.0100    0.0100    0.0100    0.0100    0.0100
    0.0100    0.0100    0.0100    0.0100    0.0100    0.0100    0.0100    0.0100
    0.0100    0.0100    0.0100    0.0100    0.0100    0.0100    0.0100    0.0100
    0.0100    0.0100    0.0100    0.0100    0.0100    0.0100    0.0100    0.0100
    0.0100    0.0100    0.0100    0.0100    0.0100    0.0100    0.0100    0.0100
    0.0100    0.0100    0.0100    0.0100    0.0100    0.0100    0.0100    0.0100
    0.0100    0.0100    0.0100    0.0100    0.0100    0.0100    0.0100    0.0100
    0.0100    0.0100    0.0100    0.0100    0.0100    0.0100    0.0100    0.0100
    0.0100    0.0100    0.0100    0.0100    0.0100    0.0100    0.0100    0.0100
    0.0100    0.0100    0.0100    0.0100    0.0100    0.0100    0.0100    0.0100
    0.0100    0.0100    0.0100    0.0100    0.0100    0.0100    0.0100    0.0100
    0.0100    0.0100    0.0100    0.0100    0.0100    0.0100    0.0100    0.0100
    0.0100    0.0100    0.0100    0.0100    0.0100    0.0100    0.0100    0.0100
    0.0100    0.0100
   </PP_RAB>
 </PP_MESH>
  <PP_LOCAL type="real"  size=" 602" columns="4">
   -3.8357600773E+01   -3.8355860388E+01   -3.8350658103E+01   -3.8341973080E+01
   -3.8329784483E+01   -3.8314065010E+01   -3.8294782585E+01   -3.8271902284E+01
   -3.8245388359E+01   -3.8215206230E+01   -3.8181324316E+01   -3.8143715611E+01
   -3.8102358952E+01   -3.8057239937E+01   -3.8008351487E+01   -3.7955694089E+01
   -3.7899275736E+01   -3.7839111636E+01   -3.7775223718E+01   -3.7707640018E+01
   -3.7636393974E+01   -3.7561523679E+01   -3.7483071136E+01   -3.7401081532E+01
   -3.7315602562E+01   -3.7226683810E+01   -3.7134376197E+01   -3.7038731500E+01
   -3.6939801943E+01   -3.6837639850E+01   -3.6732297368E+01   -3.6623826241E+01
   -3.6512277641E+01   -3.6397702038E+01   -3.6280149114E+01   -3.6159667707E+01
   -3.6036305787E+01   -3.5910110458E+01   -3.5781127970E+01   -3.5649403761E+01
   -3.5514982507E+01   -3.5377908183E+01   -3.5238224136E+01   -3.5095973167E+01
   -3.4951197613E+01   -3.4803939444E+01   -3.4654240355E+01   -3.4502141869E+01
   -3.4347685435E+01   -3.4190912531E+01   -3.4031864768E+01   -3.3870583992E+01
   -3.3707112386E+01   -3.3541492562E+01   -3.3373767673E+01   -3.3203981486E+01
   -3.3032178491E+01   -3.2858403962E+01   -3.2682704061E+01   -3.2505125874E+01
   -3.2325717522E+01   -3.2144528159E+01   -3.1961608077E+01   -3.1777008716E+01
   -3.1590782668E+01   -3.1402983772E+01   -3.1213667064E+01   -3.1022888781E+01
   -3.0830706393E+01   -3.0637178570E+01   -3.0442365150E+01   -3.0246327109E+01
   -3.0049126512E+01   -2.9850826516E+01   -2.9651491261E+01   -2.9451185835E+01
   -2.9249976202E+01   -2.9047929140E+01   -2.8845112167E+01   -2.8641593462E+01
   -2.8437441791E+01   -2.8232726425E+01   -2.8027517060E+01   -2.7821883734E+01
   -2.7615896745E+01   -2.7409626568E+01   -2.7203143777E+01   -2.6996518965E+01
   -2.6789822661E+01   -2.6583125265E+01   -2.6376496958E+01   -2.6170007641E+01
   -2.5963726855E+01   -2.5757723721E+01   -2.5552066866E+01   -2.5346824365E+01
   -2.5142063673E+01   -2.4937851568E+01   -2.4734254094E+01   -2.4531336537E+01
   -2.4329163285E+01   -2.4127797828E+01   -2.3927302715E+01   -2.3727739487E+01
   -2.3529168639E+01   -2.3331649655E+01   -2.3135240704E+01   -2.2939998817E+01
   -2.2745979790E+01   -2.2553238170E+01   -2.2361827240E+01   -2.2171798675E+01
   -2.1983202833E+01   -2.1796088645E+01   -2.1610503699E+01   -2.1426493621E+01
   -2.1244102614E+01   -2.1063373390E+01   -2.0884346927E+01   -2.0707062153E+01
   -2.0531556415E+01   -2.0357865682E+01   -2.0186023217E+01   -2.0016060702E+01
   -1.9848008338E+01   -1.9681893628E+01   -1.9517742077E+01   -1.9355577775E+01
   -1.9195421908E+01   -1.9037293447E+01   -1.8881210071E+01   -1.8727186002E+01
   -1.8575233365E+01   -1.8425363154E+01   -1.8277581898E+01   -1.8131894958E+01
   -1.7988305380E+01   -1.7846812201E+01   -1.7707413730E+01   -1.7570104091E+01
   -1.7434874982E+01   -1.7301716721E+01   -1.7170614256E+01   -1.7041552405E+01
   -1.6914511060E+01   -1.6789467870E+01   -1.6666398470E+01   -1.6545272919E+01
   -1.6426062079E+01   -1.6308729217E+01   -1.6193238222E+01   -1.6079546910E+01
   -1.5967613537E+01   -1.5857394418E+01   -1.5748848467E+01   -1.5641934423E+01
   -1.5536613906E+01   -1.5432847594E+01   -1.5330599454E+01   -1.5229832426E+01
   -1.5130512228E+01   -1.5032604062E+01   -1.4936075338E+01   -1.4840893359E+01
   -1.4747027182E+01   -1.4654446060E+01   -1.4563120678E+01   -1.4473022091E+01
   -1.4384122583E+01   -1.4296394873E+01   -1.4209812838E+01   -1.4124350734E+01
   -1.4039984013E+01   -1.3956688335E+01   -1.3874440720E+01   -1.3793218108E+01
   -1.3712999067E+01   -1.3633761700E+01   -1.3555486095E+01   -1.3478151411E+01
   -1.3401739214E+01   -1.3326229623E+01   -1.3251605470E+01   -1.3177848201E+01
   -1.3104941385E+01   -1.3032867901E+01   -1.2961611931E+01   -1.2891157753E+01
   -1.2821490056E+01   -1.2752594452E+01   -1.2684456071E+01   -1.2617061712E+01
   -1.2550397060E+01   -1.2484449681E+01   -1.2419206314E+01   -1.2354654721E+01
   -1.2290782806E+01   -1.2227578472E+01   -1.2165030694E+01   -1.2103127557E+01
   -1.2041858750E+01   -1.1981213190E+01   -1.1921180570E+01   -1.1861750845E+01
   -1.1802913671E+01   -1.1744659864E+01   -1.1686979457E+01   -1.1629863538E+01
   -1.1573303048E+01   -1.1517288922E+01   -1.1461813036E+01   -1.1406866499E+01
   -1.1352441558E+01   -1.1298530218E+01   -1.1245124465E+01   -1.1192217266E+01
   -1.1139800823E+01   -1.1087868339E+01   -1.1036412998E+01   -1.0985427639E+01
   -1.0934906318E+01   -1.0884842375E+01   -1.0835229722E+01   -1.0786062715E+01
   -1.0737335045E+01   -1.0689041560E+01   -1.0641176765E+01   -1.0593735044E+01
   -1.0546711664E+01   -1.0500101362E+01   -1.0453899229E+01   -1.0408100708E+01
   -1.0362700825E+01   -1.0317695169E+01   -1.0273079317E+01   -1.0228848568E+01
   -1.0184998799E+01   -1.0141525668E+01   -1.0098424789E+01   -1.0055692076E+01
   -1.0013323294E+01   -9.9713142382E+00   -9.9296608307E+00   -9.8883588846E+00
   -9.8474042950E+00   -9.8067930737E+00   -9.7665210252E+00   -9.7265842281E+00
   -9.6869789470E+00   -9.6477011693E+00   -9.6087471982E+00   -9.5701134665E+00
   -9.5317962581E+00   -9.4937919471E+00   -9.4560969372E+00   -9.4187075262E+00
   -9.3816201693E+00   -9.3448313829E+00   -9.3083375613E+00   -9.2721352269E+00
   -9.2362209845E+00   -9.2005913143E+00   -9.1652427959E+00   -9.1301721468E+00
   -9.0953759505E+00   -9.0608508299E+00   -9.0265936352E+00   -8.9926010768E+00
   -8.9588698020E+00   -8.9253968133E+00   -8.8921789667E+00   -8.8592129347E+00
   -8.8264958651E+00   -8.7940247394E+00   -8.7617963551E+00   -8.7298079009E+00
   -8.6980565652E+00   -8.6665392845E+00   -8.6352532419E+00   -8.6041960056E+00
   -8.5733648810E+00   -8.5427570219E+00   -8.5123702050E+00   -8.4822019500E+00
   -8.4522496147E+00   -8.4225109194E+00   -8.3929835486E+00   -8.3636650369E+00
   -8.3345530073E+00   -8.3056453983E+00   -8.2769399847E+00   -8.2484343314E+00
   -8.2201265192E+00   -8.1920144593E+00   -8.1640959471E+00   -8.1363689082E+00
   -8.1088314663E+00   -8.0814816264E+00   -8.0543172252E+00   -8.0273365079E+00
   -8.0005375847E+00   -7.9739184806E+00   -7.9474772767E+00   -7.9212122841E+00
   -7.8951216925E+00   -7.8692035350E+00   -7.8434561800E+00   -7.8178779665E+00
   -7.7924671607E+00   -7.7672219154E+00   -7.7421407709E+00   -7.7172221028E+00
   -7.6924642081E+00   -7.6678654651E+00   -7.6434244411E+00   -7.6191395945E+00
   -7.5950092631E+00   -7.5710320186E+00   -7.5472064564E+00   -7.5235311133E+00
   -7.5000043762E+00   -7.4766249762E+00   -7.4533915423E+00   -7.4303026737E+00
   -7.4073568441E+00   -7.3845528821E+00   -7.3618894666E+00   -7.3393652453E+00
   -7.3169788115E+00   -7.2947290364E+00   -7.2726146635E+00   -7.2506343944E+00
   -7.2287869178E+00   -7.2070711510E+00   -7.1854858990E+00   -7.1640299211E+00
   -7.1427019794E+00   -7.1215010414E+00   -7.1004259698E+00   -7.0794755858E+00
   -7.0586487047E+00   -7.0379443478E+00   -7.0173614325E+00   -6.9968988453E+00
   -6.9765554364E+00   -6.9563302841E+00   -6.9362223580E+00   -6.9162306132E+00
   -6.8963539179E+00   -6.8765914105E+00   -6.8569421099E+00   -6.8374050346E+00
   -6.8179790811E+00   -6.7986634253E+00   -6.7794571406E+00   -6.7603592925E+00
   -6.7413688525E+00   -6.7224849752E+00   -6.7037068064E+00   -6.6850334560E+00
   -6.6664639743E+00   -6.6479974811E+00   -6.6296331963E+00   -6.6113702720E+00
   -6.5932078411E+00   -6.5751449771E+00   -6.5571809744E+00   -6.5393150253E+00
   -6.5215463216E+00   -6.5038739621E+00   -6.4862972347E+00   -6.4688153960E+00
   -6.4514276762E+00   -6.4341332620E+00   -6.4169313653E+00   -6.3998213267E+00
   -6.3828024125E+00   -6.3658738894E+00   -6.3490349234E+00   -6.3322848989E+00
   -6.3156231295E+00   -6.2990489160E+00   -6.2825615179E+00   -6.2661602188E+00
   -6.2498444229E+00   -6.2336134643E+00   -6.2174666766E+00   -6.2014033088E+00
   -6.1854227804E+00   -6.1695244802E+00   -6.1537077732E+00   -6.1379720080E+00
   -6.1223164823E+00   -6.1067406793E+00   -6.0912439942E+00   -6.0758258219E+00
   -6.0604855091E+00   -6.0452224560E+00   -6.0300361421E+00   -6.0149259908E+00
   -5.9998914256E+00   -5.9849317977E+00   -5.9700465927E+00   -5.9552352903E+00
   -5.9404973411E+00   -5.9258321956E+00   -5.9112392158E+00   -5.8967179553E+00
   -5.8822678992E+00   -5.8678885239E+00   -5.8535793007E+00   -5.8393396228E+00
   -5.8251690803E+00   -5.8110671744E+00   -5.7970334059E+00   -5.7830672633E+00
   -5.7691681825E+00   -5.7553357685E+00   -5.7415695455E+00   -5.7278690381E+00
   -5.7142337563E+00   -5.7006631655E+00   -5.6871568890E+00   -5.6737144737E+00
   -5.6603354662E+00   -5.6470194029E+00   -5.6337657653E+00   -5.6205741994E+00
   -5.6074442733E+00   -5.5943755551E+00   -5.5813676114E+00   -5.5684199277E+00
   -5.5555321765E+00   -5.5427039462E+00   -5.5299348250E+00   -5.5172244015E+00
   -5.5045721914E+00   -5.4919778596E+00   -5.4794410261E+00   -5.4669612987E+00
   -5.4545382850E+00   -5.4421715396E+00   -5.4298607041E+00   -5.4176054352E+00
   -5.4054053592E+00   -5.3932601022E+00   -5.3811692612E+00   -5.3691324446E+00
   -5.3571493487E+00   -5.3452196172E+00   -5.3333428937E+00   -5.3215188217E+00
   -5.3097469675E+00   -5.2980270688E+00   -5.2863587860E+00   -5.2747417795E+00
   -5.2631757098E+00   -5.2516601911E+00   -5.2401949071E+00   -5.2287795660E+00
   -5.2174138441E+00   -5.2060974177E+00   -5.1948299543E+00   -5.1836110744E+00
   -5.1724405355E+00   -5.1613180291E+00   -5.1502432467E+00   -5.1392158796E+00
   -5.1282355770E+00   -5.1173020488E+00   -5.1064150329E+00   -5.0955742351E+00
   -5.0847793613E+00   -5.0740301173E+00   -5.0633261408E+00   -5.0526672163E+00
   -5.0420530660E+00   -5.0314834097E+00   -5.0209579671E+00   -5.0104764373E+00
   -5.0000385140E+00   -4.9896439798E+00   -4.9792925676E+00   -4.9689840099E+00
   -4.9587180397E+00   -4.9484943522E+00   -4.9383126925E+00   -4.9281728374E+00
   -4.9180745321E+00   -4.9080175219E+00   -4.8980015519E+00   -4.8880263187E+00
   -4.8780916062E+00   -4.8681971900E+00   -4.8583428271E+00   -4.8485282745E+00
   -4.8387532895E+00   -4.8290175742E+00   -4.8193209398E+00   -4.8096631648E+00
   -4.8000440177E+00   -4.7904632668E+00   -4.7809206807E+00   -4.7714159714E+00
   -4.7619489660E+00   -4.7525194508E+00   -4.7431272048E+00   -4.7337720075E+00
   -4.7244536378E+00   -4.7151718216E+00   -4.7059263918E+00   -4.6967171464E+00
   -4.6875438747E+00   -4.6784063662E+00   -4.6693044105E+00   -4.6602377504E+00
   -4.6512062152E+00   -4.6422096183E+00   -4.6332477589E+00   -4.6243204363E+00
   -4.6154274497E+00   -4.6065685630E+00   -4.5977435923E+00   -4.5889523702E+00
   -4.5801947052E+00   -4.5714704061E+00   -4.5627792813E+00   -4.5541211189E+00
   -4.5454957137E+00   -4.5369029205E+00   -4.5283425569E+00   -4.5198144402E+00
   -4.5113183881E+00   -4.5028542161E+00   -4.4944216899E+00   -4.4860206893E+00
   -4.4776510402E+00   -4.4693125686E+00   -4.4610051006E+00   -4.4527284621E+00
   -4.4444824438E+00   -4.4362668918E+00   -4.4280816602E+00   -4.4199265832E+00
   -4.4118014948E+00   -4.4037062291E+00   -4.3956406111E+00   -4.3876044403E+00
   -4.3795976031E+00   -4.3716199414E+00   -4.3636712969E+00   -4.3557515113E+00
   -4.3478604265E+00   -4.3399978516E+00   -4.3321636450E+00   -4.3243576762E+00
   -4.3165797942E+00   -4.3088298482E+00   -4.3011076872E+00   -4.2934131605E+00
   -4.2857460669E+00   -4.2781063118E+00   -4.2704937520E+00   -4.2629082437E+00
   -4.2553496430E+00   -4.2478178060E+00   -4.2403125747E+00   -4.2328337850E+00
   -4.2253813357E+00   -4.2179550897E+00   -4.2105549098E+00   -4.2031806589E+00
   -4.1958321997E+00   -4.1885093708E+00   -4.1812120372E+00   -4.1739400931E+00
   -4.1666934076E+00   -4.1594718501E+00   -4.1522752896E+00   -4.1451035954E+00
   -4.1379566069E+00   -4.1308342082E+00   -4.1237362931E+00   -4.1166627368E+00
   -4.1096134145E+00   -4.1025882015E+00   -4.0955869731E+00   -4.0886095732E+00
   -4.0816558965E+00   -4.0747258397E+00   -4.0678192839E+00   -4.0609361101E+00
   -4.0540761994E+00   -4.0472394328E+00   -4.0404256625E+00   -4.0336347849E+00
   -4.0268667035E+00   -4.0201213049E+00   -4.0133984758E+00   -4.0066981026E+00
   -4.0000200721E+00   -3.9933642478E+00
  </PP_LOCAL>
 <PP_NONLOCAL>
   <PP_BETA.1
       type="real"
       size=" 602"
       columns="4"
       index="1"
       angular_momentum="0"
       cutoff_radius_index=" 400"
       cutoff_radius="    3.9900000000E+00" >
    0.0000000000E+00    4.6513489854E-02    9.2973159999E-02    1.3932526172E-01
    1.8551618825E-01    2.3149254555E-01    2.7720122292E-01    3.2258946337E-01
    3.6760493357E-01    4.1219579353E-01    4.5631076572E-01    4.9989920366E-01
    5.4291115995E-01    5.8529745355E-01    6.2700973642E-01    6.6800055917E-01
    7.0822343599E-01    7.4763290839E-01    7.8618460813E-01    8.2383531873E-01
    8.6054303602E-01    8.9626702717E-01    9.3096788844E-01    9.6460760148E-01
    9.9714958800E-01    1.0285587626E+00    1.0588015845E+00    1.0878461065E+00
    1.1156620226E+00    1.1422207140E+00    1.1674952918E+00    1.1914606385E+00
    1.2140934472E+00    1.2353722575E+00    1.2552774900E+00    1.2737914777E+00
    1.2908984948E+00    1.3065847824E+00    1.3208385729E+00    1.3336501092E+00
    1.3450116627E+00    1.3549175474E+00    1.3633641313E+00    1.3703498444E+00
    1.3758751838E+00    1.3799427146E+00    1.3825570685E+00    1.3837249383E+00
    1.3834550692E+00    1.3817582463E+00    1.3786472793E+00    1.3741369835E+00
    1.3682441558E+00    1.3609875497E+00    1.3523878438E+00    1.3424676105E+00
    1.3312512758E+00    1.3187650829E+00    1.3050370425E+00    1.2900968940E+00
    1.2739760418E+00    1.2567075173E+00    1.2383259055E+00    1.2188672924E+00
    1.1983692111E+00    1.1768705486E+00    1.1544114990E+00    1.1310334917E+00
    1.1067791018E+00    1.0816919754E+00    1.0558167592E+00    1.0291990148E+00
    1.0018851429E+00    9.7392226495E-01    9.4535816817E-01    9.1624120589E-01
    8.8662020670E-01    8.5654438232E-01    8.2606323455E-01    7.9522646149E-01
    7.6408386595E-01    7.3268525685E-01    7.0108034805E-01    6.6931867644E-01
    6.3744950204E-01    6.0552171403E-01    5.7358373747E-01    5.4168344108E-01
    5.0986804612E-01    4.7818405031E-01    4.4667710663E-01    4.1539196085E-01
    3.8437236523E-01    3.5366099447E-01    3.2329936642E-01    2.9332776565E-01
    2.6378517004E-01    2.3470918071E-01    2.0613595553E-01    1.7810020304E-01
    1.5063496867E-01    1.2377168991E-01    9.7540142690E-02    7.1968380437E-02
    4.7082692332E-02    2.2907669203E-02   -5.3415014486E-04   -2.3222017476E-02
   -4.5137069365E-02   -6.6262320439E-02   -8.6582671920E-02   -1.0608517561E-01
   -1.2475871945E-01   -1.4259410921E-01   -1.5958399507E-01   -1.7572324519E-01
   -1.9100849919E-01   -2.0543821551E-01   -2.1901278218E-01   -2.3173456720E-01
   -2.4360762908E-01   -2.5463766287E-01   -2.6483238973E-01   -2.7420104558E-01
   -2.8275439661E-01   -2.9050494804E-01   -2.9746663414E-01   -3.0365475236E-01
   -3.0908606483E-01   -3.1377855090E-01   -3.1775140918E-01   -3.2102496334E-01