<UPF version="2.0.1">
  <PP_INFO>

 This pseudopotential file has been produced using the code
 ONCVPSP  (Optimized Norm-Conservinng Vanderbilt PSeudopotential)
 scalar-relativistic version 2.1.1, 03/26/2014 by D. R. Hamann
 The code is available through a link at URL www.mat-simresearch.com.
 Documentation with the package provides a full discription of the
 input data below.


 While it is not required under the terms of the GNU GPL, it is
 suggested that you cite D. R. Hamann, Phys. Rev. B 88, 085117 (2013)
 in any publication using these pseudopotentials.

    <PP_INPUTFILE>
# ATOM AND REFERENCE CONFIGURATION
# atsym  z    nc    nv    iexc   psfile
  Hg 80.00    10     4     4      upf
#
#   n    l    f        energy (Ha)
    1    0    2.00
    2    0    2.00
    2    1    6.00
    3    0    2.00
    3    1    6.00
    3    2   10.00
    4    0    2.00
    4    1    6.00
    4    2   10.00
    4    3   14.00
    5    0    2.00
    5    1    6.00
    6    0    2.00
    5    2   10.00
#
# PSEUDOPOTENTIAL AND OPTIMIZATION
# lmax
    3
#
#   l,   rc,     ep,   ncon, nbas, qcut
    0   2.34483  -4.34313    5    8   6.55678
    1   2.31703  -2.44441    5    8   6.68406
    2   2.18287  -0.36236    5    8   6.85469
    3   3.23583   0.20858    5    8   4.90290
#
# LOCAL POTENTIAL
# lloc, lpopt,  rc(5),   dvloc0
    4    5   1.52621      0.00000
#
# VANDERBILT-KLEINMAN-BYLANDER PROJECTORs
# l, nproj, debl
    0    2   4.09261
    1    2   2.40599
    2    2   1.54805
    3    2   1.66977
#
# MODEL CORE CHARGE
# icmod, fcfact
    0   0.00000
#
# LOG DERIVATIVE ANALYSIS
# epsh1, epsh2, depsh
   -5.00    3.00    0.02
#
# OUTPUT GRID
# rlmax, drl
    6.00    0.01
#
# TEST CONFIGURATIONS
# ncnf
    0
# nvcnf
#   n    l    f
    </PP_INPUTFILE>
  </PP_INFO>
  <!--                               -->
  <!-- END OF HUMAN READABLE SECTION -->
  <!--                               -->
    <PP_HEADER
       generated="Generated using ONCVPSP code by D. R. Hamann"
       author="anonymous"
       date="241015"
       comment=""
       element="Hg"
       pseudo_type="NC"
       relativistic="scalar"
       is_ultrasoft="F"
       is_paw="F"
       is_coulomb="F"
       has_so="F"
       has_wfc="F"
       has_gipaw="T"
       core_correction="F"
       functional="PBE"
       z_valence="   20.00"
       total_psenergy="  -1.55136026454E+02"
       rho_cutoff="   6.01000000000E+00"
       l_max="3"
       l_local="-1"
       mesh_size="   602"
       number_of_wfc="0"
       number_of_proj="8"/>
 <PP_MESH>
   <PP_R type="real"  size=" 602" columns="8">
    0.0000    0.0100    0.0200    0.0300    0.0400    0.0500    0.0600    0.0700
    0.0800    0.0900    0.1000    0.1100    0.1200    0.1300    0.1400    0.1500
    0.1600    0.1700    0.1800    0.1900    0.2000    0.2100    0.2200    0.2300
    0.2400    0.2500    0.2600    0.2700    0.2800    0.2900    0.3000    0.3100
    0.3200    0.3300    0.3400    0.3500    0.3600    0.3700    0.3800    0.3900
    0.4000    0.4100    0.4200    0.4300    0.4400    0.4500    0.4600    0.4700
    0.4800    0.4900    0.5000    0.5100    0.5200    0.5300    0.5400    0.5500
    0.5600    0.5700    0.5800    0.5900    0.6000    0.6100    0.6200    0.6300
    0.6400    0.6500    0.6600    0.6700    0.6800    0.6900    0.7000    0.7100
    0.7200    0.7300    0.7400    0.7500    0.7600    0.7700    0.7800    0.7900
    0.8000    0.8100    0.8200    0.8300    0.8400    0.8500    0.8600    0.8700
    0.8800    0.8900    0.9000    0.9100    0.9200    0.9300    0.9400    0.9500
    0.9600    0.9700    0.9800    0.9900    1.0000    1.0100    1.0200    1.0300
    1.0400    1.0500    1.0600    1.0700    1.0800    1.0900    1.1000    1.1100
    1.1200    1.1300    1.1400    1.1500    1.1600    1.1700    1.1800    1.1900
    1.2000    1.2100    1.2200    1.2300    1.2400    1.2500    1.2600    1.2700
    1.2800    1.2900    1.3000    1.3100    1.3200    1.3300    1.3400    1.3500
    1.3600    1.3700    1.3800    1.3900    1.4000    1.4100    1.4200    1.4300
    1.4400    1.4500    1.4600    1.4700    1.4800    1.4900    1.5000    1.5100
    1.5200    1.5300    1.5400    1.5500    1.5600    1.5700    1.5800    1.5900
    1.6000    1.6100    1.6200    1.6300    1.6400    1.6500    1.6600    1.6700
    1.6800    1.6900    1.7000    1.7100    1.7200    1.7300    1.7400    1.7500
    1.7600    1.7700    1.7800    1.7900    1.8000    1.8100    1.8200    1.8300
    1.8400    1.8500    1.8600    1.8700    1.8800    1.8900    1.9000    1.9100
    1.9200    1.9300    1.9400    1.9500    1.9600    1.9700    1.9800    1.9900
    2.0000    2.0100    2.0200    2.0300    2.0400    2.0500    2.0600    2.0700
    2.0800    2.0900    2.1000    2.1100    2.1200    2.1300    2.1400    2.1500
    2.1600    2.1700    2.1800    2.1900    2.2000    2.2100    2.2200    2.2300
    2.2400    2.2500    2.2600    2.2700    2.2800    2.2900    2.3000    2.3100
    2.3200    2.3300    2.3400    2.3500    2.3600    2.3700    2.3800    2.3900
    2.4000    2.4100    2.4200    2.4300    2.4400    2.4500    2.4600    2.4700
    2.4800    2.4900    2.5000    2.5100    2.5200    2.5300    2.5400    2.5500
    2.5600    2.5700    2.5800    2.5900    2.6000    2.6100    2.6200    2.6300
    2.6400    2.6500    2.6600    2.6700    2.6800    2.6900    2.7000    2.7100
    2.7200    2.7300    2.7400    2.7500    2.7600    2.7700    2.7800    2.7900
    2.8000    2.8100    2.8200    2.8300    2.8400    2.8500    2.8600    2.8700
    2.8800    2.8900    2.9000    2.9100    2.9200    2.9300    2.9400    2.9500
    2.9600    2.9700    2.9800    2.9900    3.0000    3.0100    3.0200    3.0300
    3.0400    3.0500    3.0600    3.0700    3.0800    3.0900    3.1000    3.1100
    3.1200    3.1300    3.1400    3.1500    3.1600    3.1700    3.1800    3.1900
    3.2000    3.2100    3.2200    3.2300    3.2400    3.2500    3.2600    3.2700
    3.2800    3.2900    3.3000    3.3100    3.3200    3.3300    3.3400    3.3500
    3.3600    3.3700    3.3800    3.3900    3.4000    3.4100    3.4200    3.4300
    3.4400    3.4500    3.4600    3.4700    3.4800    3.4900    3.5000    3.5100
    3.5200    3.5300    3.5400    3.5500    3.5600    3.5700    3.5800    3.5900
    3.6000    3.6100    3.6200    3.6300    3.6400    3.6500    3.6600    3.6700
    3.6800    3.6900    3.7000    3.7100    3.7200    3.7300    3.7400    3.7500
    3.7600    3.7700    3.7800    3.7900    3.8000    3.8100    3.8200    3.8300
    3.8400    3.8500    3.8600    3.8700    3.8800    3.8900    3.9000    3.9100
    3.9200    3.9300    3.9400    3.9500    3.9600    3.9700    3.9800    3.9900
    4.0000    4.0100    4.0200    4.0300    4.0400    4.0500    4.0600    4.0700
    4.0800    4.0900    4.1000    4.1100    4.1200    4.1300    4.1400    4.1500
    4.1600    4.1700    4.1800    4.1900    4.2000    4.2100    4.2200    4.2300
    4.2400    4.2500    4.2600    4.2700    4.2800    4.2900    4.3000    4.3100
    4.3200    4.3300    4.3400    4.3500    4.3600    4.3700    4.3800    4.3900
    4.4000    4.4100    4.4200    4.4300    4.4400    4.4500    4.4600    4.4700
    4.4800    4.4900    4.5000    4.5100    4.5200    4.5300    4.5400    4.5500
    4.5600    4.5700    4.5800    4.5900    4.6000    4.6100    4.6200    4.6300
    4.6400    4.6500    4.6600    4.6700    4.6800    4.6900    4.7000    4.7100
    4.7200    4.7300    4.7400    4.7500    4.7600    4.7700    4.7800    4.7900
    4.8000    4.8100    4.8200    4.8300    4.8400    4.8500    4.8600    4.8700
    4.8800    4.8900    4.9000    4.9100    4.9200    4.9300    4.9400    4.9500
    4.9600    4.9700    4.9800    4.9900    5.0000    5.0100    5.0200    5.0300
    5.0400    5.0500    5.0600    5.0700    5.0800    5.0900    5.1000    5.1100
    5.1200    5.1300    5.1400    5.1500    5.1600    5.1700    5.1800    5.1900
    5.2000    5.2100    5.2200    5.2300    5.2400    5.2500    5.2600    5.2700
    5.2800    5.2900    5.3000    5.3100    5.3200    5.3300    5.3400    5.3500
    5.3600    5.3700    5.3800    5.3900    5.4000    5.4100    5.4200    5.4300
    5.4400    5.4500    5.4600    5.4700    5.4800    5.4900    5.5000    5.5100
    5.5200    5.5300    5.5400    5.5500    5.5600    5.5700    5.5800    5.5900
    5.6000    5.6100    5.6200    5.6300    5.6400    5.6500    5.6600    5.6700
    5.6800    5.6900    5.7000    5.7100    5.7200    5.7300    5.7400    5.7500
    5.7600    5.7700    5.7800    5.7900    5.8000    5.8100    5.8200    5.8300
    5.8400    5.8500    5.8600    5.8700    5.8800    5.8900    5.9000    5.9100
    5.9200    5.9300    5.9400    5.9500    5.9600    5.9700    5.9800    5.9900
    6.0000    6.0100
   </PP_R>
   <PP_RAB type="real"  size=" 602" columns="8">
    0.0100    0.0100    0.0100    0.0100    0.0100    0.0100    0.0100    0.0100
    0.0100    0.0100    0.0100    0.0100    0.0100    0.0100    0.0100    0.0100
    0.0100    0.0100    0.0100    0.0100    0.0100    0.0100    0.0100    0.0100
    0.0100    0.0100    0.0100    0.0100    0.0100    0.0100    0.0100    0.0100
    0.0100    0.0100    0.0100    0.0100    0.0100    0.0100    0.0100    0.0100
    0.0100    0.0100    0.0100    0.0100    0.0100    0.0100    0.0100    0.0100
    0.0100    0.0100    0.0100    0.0100    0.0100    0.0100    0.0100    0.0100
    0.0100    0.0100    0.0100    0.0100    0.0100    0.0100    0.0100    0.0100
    0.0100    0.0100    0.0100    0.0100    0.0100    0.0100    0.0100    0.0100
    0.0100    0.0100    0.0100    0.0100    0.0100    0.0100    0.0100    0.0100
    0.0100    0.0100    0.0100    0.0100    0.0100    0.0100    0.0100    0.0100
    0.0100    0.0100    0.0100    0.0100    0.0100    0.0100    0.0100    0.0100
    0.0100    0.0100    0.0100    0.0100    0.0100    0.0100    0.0100    0.0100
    0.0100    0.0100    0.0100    0.0100    0.0100    0.0100    0.0100    0.0100
    0.0100    0.0100    0.0100    0.0100    0.0100    0.0100    0.0100    0.0100
    0.0100    0.0100    0.0100    0.0100    0.0100    0.0100    0.0100    0.0100
    0.0100    0.0100    0.0100    0.0100    0.0100    0.0100    0.0100    0.0100
    0.0100    0.0100    0.0100    0.0100    0.0100    0.0100    0.0100    0.0100
    0.0100    0.0100    0.0100    0.0100    0.0100    0.0100    0.0100    0.0100
    0.0100    0.0100    0.0100    0.0100    0.0100    0.0100    0.0100    0.0100
    0.0100    0.0100    0.0100    0.0100    0.0100    0.0100    0.0100    0.0100
    0.0100    0.0100    0.0100    0.0100    0.0100    0.0100    0.0100    0.0100
    0.0100    0.0100    0.0100    0.0100    0.0100    0.0100    0.0100    0.0100
    0.0100    0.0100    0.0100    0.0100    0.0100    0.0100    0.0100    0.0100
    0.0100    0.0100    0.0100    0.0100    0.0100    0.0100    0.0100    0.0100
    0.0100    0.0100    0.0100    0.0100    0.0100    0.0100    0.0100    0.0100
    0.0100    0.0100    0.0100    0.0100    0.0100    0.0100    0.0100    0.0100
    0.0100    0.0100    0.0100    0.0100    0.0100    0.0100    0.0100    0.0100
    0.0100    0.0100    0.0100    0.0100    0.0100    0.0100    0.0100    0.0100
    0.0100    0.0100    0.0100    0.0100    0.0100    0.0100    0.0100    0.0100
    0.0100    0.0100    0.0100    0.0100    0.0100    0.0100    0.0100    0.0100
    0.0100    0.0100    0.0100    0.0100    0.0100    0.0100    0.0100    0.0100
    0.0100    0.0100    0.0100    0.0100    0.0100    0.0100    0.0100    0.0100
    0.0100    0.0100    0.0100    0.0100    0.0100    0.0100    0.0100    0.0100
    0.0100    0.0100    0.0100    0.0100    0.0100    0.0100    0.0100    0.0100
    0.0100    0.0100    0.0100    0.0100    0.0100    0.0100    0.0100    0.0100
    0.0100    0.0100    0.0100    0.0100    0.0100    0.0100    0.0100    0.0100
    0.0100    0.0100    0.0100    0.0100    0.0100    0.0100    0.0100    0.0100
    0.0100    0.0100    0.0100    0.0100    0.0100    0.0100    0.0100    0.0100
    0.0100    0.0100    0.0100    0.0100    0.0100    0.0100    0.0100    0.0100
    0.0100    0.0100    0.0100    0.0100    0.0100    0.0100    0.0100    0.0100
    0.0100    0.0100    0.0100    0.0100    0.0100    0.0100    0.0100    0.0100
    0.0100    0.0100    0.0100    0.0100    0.0100    0.0100    0.0100    0.0100
    0.0100    0.0100    0.0100    0.0100    0.0100    0.0100    0.0100    0.0100
    0.0100    0.0100    0.0100    0.0100    0.0100    0.0100    0.0100    0.0100
    0.0100    0.0100    0.0100    0.0100    0.0100    0.0100    0.0100    0.0100
    0.0100    0.0100    0.0100    0.0100    0.0100    0.0100    0.0100    0.0100
    0.0100    0.0100    0.0100    0.0100    0.0100    0.0100    0.0100    0.0100
    0.0100    0.0100    0.0100    0.0100    0.0100    0.0100    0.0100    0.0100
    0.0100    0.0100    0.0100    0.0100    0.0100    0.0100    0.0100    0.0100
    0.0100    0.0100    0.0100    0.0100    0.0100    0.0100    0.0100    0.0100
    0.0100    0.0100    0.0100    0.0100    0.0100    0.0100    0.0100    0.0100
    0.0100    0.0100    0.0100    0.0100    0.0100    0.0100    0.0100    0.0100
    0.0100    0.0100    0.0100    0.0100    0.0100    0.0100    0.0100    0.0100
    0.0100    0.0100    0.0100    0.0100    0.0100    0.0100    0.0100    0.0100
    0.0100    0.0100    0.0100    0.0100    0.0100    0.0100    0.0100    0.0100
    0.0100    0.0100    0.0100    0.0100    0.0100    0.0100    0.0100    0.0100
    0.0100    0.0100    0.0100    0.0100    0.0100    0.0100    0.0100    0.0100
    0.0100    0.0100    0.0100    0.0100    0.0100    0.0100    0.0100    0.0100
    0.0100    0.0100    0.0100    0.0100    0.0100    0.0100    0.0100    0.0100
    0.0100    0.0100    0.0100    0.0100    0.0100    0.0100    0.0100    0.0100
    0.0100    0.0100    0.0100    0.0100    0.0100    0.0100    0.0100    0.0100
    0.0100    0.0100    0.0100    0.0100    0.0100    0.0100    0.0100    0.0100
    0.0100    0.0100    0.0100    0.0100    0.0100    0.0100    0.0100    0.0100
    0.0100    0.0100    0.0100    0.0100    0.0100    0.0100    0.0100    0.0100
    0.0100    0.0100    0.0100    0.0100    0.0100    0.0100    0.0100    0.0100
    0.0100    0.0100    0.0100    0.0100    0.0100    0.0100    0.0100    0.0100
    0.0100    0.0100    0.0100    0.0100    0.0100    0.0100    0.0100    0.0100
    0.0100    0.0100    0.0100    0.0100    0.0100    0.0100    0.0100    0.0100
    0.0100    0.0100    0.0100    0.0100    0.0100    0.0100    0.0100    0.0100
    0.0100    0.0100    0.0100    0.0100    0.0100    0.0100    0.0100    0.0100
    0.0100    0.0100    0.0100    0.0100    0.0100    0.0100    0.0100    0.0100
    0.0100    0.0100    0.0100    0.0100    0.0100    0.0100    0.0100    0.0100
    0.0100    0.0100    0.0100    0.0100    0.0100    0.0100    0.0100    0.0100
    0.0100    0.0100    0.0100    0.0100    0.0100    0.0100    0.0100    0.0100
    0.0100    0.0100
   </PP_RAB>
 </PP_MESH>
  <PP_LOCAL type="real"  size=" 602" columns="4">
   -5.7382873670E+01   -5.7380685318E+01   -5.7374145848E+01   -5.7363227082E+01
   -5.7347900843E+01   -5.7328130152E+01   -5.7303871442E+01   -5.7275077066E+01
   -5.7241697918E+01   -5.7203685979E+01   -5.7160996633E+01   -5.7113590641E+01
   -5.7061435684E+01   -5.7004507462E+01   -5.6942790343E+01   -5.6876277599E+01
   -5.6804971290E+01   -5.6728881857E+01   -5.6648027507E+01   -5.6562433447E+01
   -5.6472131041E+01   -5.6377156927E+01   -5.6277552154E+01   -5.6173361360E+01
   -5.6064632008E+01   -5.5951413700E+01   -5.5833757585E+01   -5.5711715832E+01
   -5.5585341200E+01   -5.5454686676E+01   -5.5319805183E+01   -5.5180749351E+01
   -5.5037571339E+01   -5.4890322703E+01   -5.4739054307E+01   -5.4583816261E+01
   -5.4424657887E+01   -5.4261627717E+01   -5.4094773496E+01   -5.3924142208E+01
   -5.3749780118E+01   -5.3571732819E+01   -5.3390045294E+01   -5.3204761983E+01
   -5.3015926862E+01   -5.2823583530E+01   -5.2627775296E+01   -5.2428545286E+01
   -5.2225936549E+01   -5.2019992170E+01   -5.1810755394E+01   -5.1598269761E+01
   -5.1382579231E+01   -5.1163728340E+01   -5.0941762343E+01   -5.0716727358E+01
   -5.0488670550E+01   -5.0257640243E+01   -5.0023686147E+01   -4.9786859434E+01
   -4.9547212976E+01   -4.9304801437E+01   -4.9059681420E+01   -4.8811911662E+01
   -4.8561553057E+01   -4.8308668832E+01   -4.8053324653E+01   -4.7795588642E+01
   -4.7535531414E+01   -4.7273226243E+01   -4.7008748954E+01   -4.6742177946E+01
   -4.6473594161E+01   -4.6203081020E+01   -4.5930724435E+01   -4.5656612622E+01
   -4.5380836025E+01   -4.5103487188E+01   -4.4824660616E+01   -4.4544452621E+01
   -4.4262961157E+01   -4.3980285646E+01   -4.3696526798E+01   -4.3411786425E+01
   -4.3126167257E+01   -4.2839772748E+01   -4.2552706897E+01   -4.2265074058E+01
   -4.1976978761E+01   -4.1688525538E+01   -4.1399818753E+01   -4.1110962437E+01
   -4.0822060135E+01   -4.0533214755E+01   -4.0244528428E+01   -3.9956102373E+01
   -3.9668036773E+01   -3.9380430654E+01   -3.9093381836E+01   -3.8806986654E+01
   -3.8521340009E+01   -3.8236535227E+01   -3.7952663976E+01   -3.7669816184E+01
   -3.7388080077E+01   -3.7107541782E+01   -3.6828285483E+01   -3.6550393351E+01
   -3.6273945456E+01   -3.5999019948E+01   -3.5725692281E+01   -3.5454035796E+01
   -3.5184121518E+01   -3.4916018367E+01   -3.4649792360E+01   -3.4385507072E+01
   -3.4123223648E+01   -3.3863001157E+01   -3.3604895077E+01   -3.3348958652E+01
   -3.3095242810E+01   -3.2843795419E+01   -3.2594661248E+01   -3.2347882829E+01
   -3.2103500057E+01   -3.1861549038E+01   -3.1622063777E+01   -3.1385075822E+01
   -3.1150612515E+01   -3.0918699324E+01   -3.0689359068E+01   -3.0462610316E+01
   -3.0238470085E+01   -3.0016952048E+01   -2.9798066095E+01   -2.9581820940E+01
   -2.9368220642E+01   -2.9157266789E+01   -2.8948959377E+01   -2.8743292916E+01
   -2.8540261307E+01   -2.8339854225E+01   -2.8142058050E+01   -2.7946858255E+01
   -2.7754234048E+01   -2.7564164810E+01   -2.7376624590E+01   -2.7191585233E+01
   -2.7009016284E+01   -2.6828881690E+01   -2.6651146340E+01   -2.6475766809E+01
   -2.6302701218E+01   -2.6131900301E+01   -2.5963316036E+01   -2.5796898204E+01
   -2.5632599357E+01   -2.5470372788E+01   -2.5310174727E+01   -2.5151961194E+01
   -2.4995691942E+01   -2.4841325567E+01   -2.4688825034E+01   -2.4538151455E+01
   -2.4389270625E+01   -2.4242146358E+01   -2.4096746782E+01   -2.3953038297E+01
   -2.3810991257E+01   -2.3670574403E+01   -2.3531760207E+01   -2.3394519511E+01
   -2.3258826793E+01   -2.3124654777E+01   -2.2991979779E+01   -2.2860776256E+01
   -2.2731022078E+01   -2.2602693494E+01   -2.2475769526E+01   -2.2350228133E+01
   -2.2226049280E+01   -2.2103212488E+01   -2.1981698490E+01   -2.1861488188E+01
   -2.1742562944E+01   -2.1624904845E+01   -2.1508495781E+01   -2.1393318814E+01
   -2.1279356299E+01   -2.1166591980E+01   -2.1055008874E+01   -2.0944590978E+01
   -2.0835322032E+01   -2.0727186148E+01   -2.0620167675E+01   -2.0514250840E+01
   -2.0409420463E+01   -2.0305660940E+01   -2.0202957367E+01   -2.0101294532E+01
   -2.0000657560E+01   -1.9901031718E+01   -1.9802402124E+01   -1.9704754511E+01
   -1.9608074159E+01   -1.9512347033E+01   -1.9417558933E+01   -1.9323695765E+01
   -1.9230744043E+01   -1.9138689670E+01   -1.9047519641E+01   -1.8957220540E+01
   -1.8867779195E+01   -1.8779183192E+01   -1.8691419309E+01   -1.8604475716E+01
   -1.8518340129E+01   -1.8433000343E+01   -1.8348445444E+01   -1.8264663373E+01
   -1.8181643667E+01   -1.8099375948E+01   -1.8017849118E+01   -1.7937053982E+01
   -1.7856980480E+01   -1.7777618883E+01   -1.7698959990E+01   -1.7620993942E+01
   -1.7543711909E+01   -1.7467105030E+01   -1.7391163908E+01   -1.7315880463E+01
   -1.7241246004E+01   -1.7167251922E+01   -1.7093890430E+01   -1.7021153150E+01
   -1.6949032166E+01   -1.6877519972E+01   -1.6806608518E+01   -1.6736290476E+01
   -1.6666558589E+01   -1.6597405097E+01   -1.6528823197E+01   -1.6460805908E+01
   -1.6393345777E+01   -1.6326436467E+01   -1.6260071246E+01   -1.6194243062E+01
   -1.6128945884E+01   -1.6064173261E+01   -1.5999918506E+01   -1.5936175869E+01
   -1.5872939192E+01   -1.5810202108E+01   -1.5747959138E+01   -1.5686204421E+01
   -1.5624931855E+01   -1.5564136233E+01   -1.5503811990E+01   -1.5443953245E+01
   -1.5384555060E+01   -1.5325612142E+01   -1.5267118860E+01   -1.5209070469E+01
   -1.5151461949E+01   -1.5094287959E+01   -1.5037543865E+01   -1.4981224930E+01
   -1.4925326111E+01   -1.4869842838E+01   -1.4814770660E+01   -1.4760104835E+01
   -1.4705840820E+01   -1.4651974448E+01   -1.4598501280E+01   -1.4545416770E+01
   -1.4492717027E+01   -1.4440397882E+01   -1.4388454872E+01   -1.4336884260E+01
   -1.4285682110E+01   -1.4234844254E+01   -1.4184366870E+01   -1.4134246315E+01
   -1.4084478729E+01   -1.4035060178E+01   -1.3985987300E+01   -1.3937256484E+01
   -1.3888863866E+01   -1.3840806155E+01   -1.3793079969E+01   -1.3745681753E+01
   -1.3698608032E+01   -1.3651855721E+01   -1.3605421537E+01   -1.3559301940E+01
   -1.3513493993E+01   -1.3467994607E+01   -1.3422800548E+01   -1.3377908642E+01
   -1.3333316098E+01   -1.3289019933E+01   -1.3245016942E+01   -1.3201304395E+01
   -1.3157879517E+01   -1.3114739417E+01   -1.3071881079E+01   -1.3029302024E+01
   -1.2986999539E+01   -1.2944970771E+01   -1.2903213067E+01   -1.2861723980E+01
   -1.2820500924E+01   -1.2779541102E+01   -1.2738842174E+01   -1.2698401731E+01
   -1.2658217295E+01   -1.2618286174E+01   -1.2578606259E+01   -1.2539175198E+01
   -1.2499990574E+01   -1.2461049937E+01   -1.2422351237E+01   -1.2383892232E+01
   -1.2345670573E+01   -1.2307684020E+01   -1.2269930583E+01   -1.2232408125E+01
   -1.2195114376E+01   -1.2158047267E+01   -1.2121204877E+01   -1.2084585167E+01
   -1.2048185954E+01   -1.2012005305E+01   -1.1976041375E+01   -1.1940292221E+01
   -1.1904755752E+01   -1.1869430139E+01   -1.1834313620E+01   -1.1799404341E+01
   -1.1764700312E+01   -1.1730199778E+01   -1.1695901065E+01   -1.1661802408E+01
   -1.1627901919E+01   -1.1594197890E+01   -1.1560688742E+01   -1.1527372793E+01
   -1.1494248268E+01   -1.1461313474E+01   -1.1428566937E+01   -1.1396007050E+01
   -1.1363632158E+01   -1.1331440562E+01   -1.1299430892E+01   -1.1267601618E+01
   -1.1235951207E+01   -1.1204477932E+01   -1.1173180533E+01   -1.1142057551E+01
   -1.1111107528E+01   -1.1080328851E+01   -1.1049720210E+01   -1.1019280266E+01
   -1.0989007630E+01   -1.0958900823E+01   -1.0928958450E+01   -1.0899179302E+01
   -1.0869562051E+01   -1.0840105363E+01   -1.0810807740E+01   -1.0781668099E+01
   -1.0752685176E+01   -1.0723857706E+01   -1.0695184306E+01   -1.0666663792E+01
   -1.0638295031E+01   -1.0610076818E+01   -1.0582007921E+01   -1.0554087010E+01
   -1.0526313093E+01   -1.0498685021E+01   -1.0471201643E+01   -1.0443861701E+01
   -1.0416664113E+01   -1.0389607856E+01   -1.0362691835E+01   -1.0335914951E+01
   -1.0309275940E+01   -1.0282773928E+01   -1.0256407870E+01   -1.0230176720E+01
   -1.0204079370E+01   -1.0178114746E+01   -1.0152281963E+01   -1.0126580023E+01
   -1.0101007932E+01   -1.0075564578E+01   -1.0050249053E+01   -1.0025060464E+01
   -9.9999978618E+00   -9.9750602957E+00   -9.9502466668E+00   -9.9255562005E+00
   -9.9009880051E+00   -9.8765411753E+00   -9.8522147883E+00   -9.8280078171E+00
   -9.8039195405E+00   -9.7799490952E+00   -9.7560956180E+00   -9.7323582080E+00
   -9.7087359277E+00   -9.6852280743E+00   -9.6618338245E+00   -9.6385523553E+00
   -9.6153827960E+00   -9.5923242748E+00   -9.5693761141E+00   -9.5465375291E+00
   -9.5238077351E+00   -9.5011858990E+00   -9.4786711923E+00   -9.4562629695E+00
   -9.4339604826E+00   -9.4117629834E+00   -9.3896696836E+00   -9.3676797763E+00
   -9.3457926555E+00   -9.3240076079E+00   -9.3023239201E+00   -9.2807408556E+00
   -9.2592576093E+00   -9.2378736206E+00   -9.2165882094E+00   -9.1954006956E+00
   -9.1743103991E+00   -9.1533165034E+00   -9.1324184939E+00   -9.1116157236E+00
   -9.0909075443E+00   -9.0702933076E+00   -9.0497722614E+00   -9.0293438492E+00
   -9.0090074867E+00   -8.9887625557E+00   -8.9686084379E+00   -8.9485444528E+00
   -8.9285699847E+00   -8.9086845168E+00   -8.8888874596E+00   -8.8691782237E+00
   -8.8495562061E+00   -8.8300207174E+00   -8.8105713116E+00   -8.7912074267E+00
   -8.7719285007E+00   -8.7527339717E+00   -8.7336231907E+00   -8.7145956587E+00
   -8.6956508812E+00   -8.6767883226E+00   -8.6580074471E+00   -8.6393076946E+00
   -8.6206884578E+00   -8.6021493260E+00   -8.5836897884E+00   -8.5653093343E+00
   -8.5470074528E+00   -8.5287835550E+00   -8.5106371783E+00   -8.4925678804E+00
   -8.4745751741E+00   -8.4566585726E+00   -8.4388175865E+00   -8.4210516162E+00
   -8.4033603123E+00   -8.3857432103E+00   -8.3681998460E+00   -8.3507297551E+00
   -8.3333324344E+00   -8.3160073872E+00   -8.2987542488E+00   -8.2815725765E+00
   -8.2644619276E+00   -8.2474218594E+00   -8.2304518637E+00   -8.2135515259E+00
   -8.1967204729E+00   -8.1799582825E+00   -8.1632645328E+00   -8.1466388016E+00
   -8.1300805838E+00   -8.1135895267E+00   -8.0971652559E+00   -8.0808073690E+00
   -8.0645154638E+00   -8.0482891378E+00   -8.0321278965E+00   -8.0160314292E+00
   -7.9999993683E+00   -7.9840313302E+00   -7.9681269311E+00   -7.9522857876E+00
   -7.9365074224E+00   -7.9207915490E+00   -7.9051378134E+00   -7.8895458500E+00
   -7.8740152930E+00   -7.8585457765E+00   -7.8431368474E+00   -7.8277882259E+00
   -7.8124995788E+00   -7.7972705575E+00   -7.7821008132E+00   -7.7669899973E+00
   -7.7519376861E+00   -7.7369435910E+00   -7.7220074060E+00   -7.7071287986E+00
   -7.6923074363E+00   -7.6775429866E+00   -7.6628350618E+00   -7.6481833490E+00
   -7.6335875752E+00   -7.6190474235E+00   -7.6045625768E+00   -7.5901327182E+00
   -7.5757575013E+00   -7.5614365753E+00   -7.5471697053E+00   -7.5329565891E+00
   -7.5187969244E+00   -7.5046904091E+00   -7.4906367409E+00   -7.4766355273E+00
   -7.4626865667E+00   -7.4487895740E+00   -7.4349442610E+00   -7.4211503396E+00
   -7.4074075216E+00   -7.3937154673E+00   -7.3800739067E+00   -7.3664826058E+00
   -7.3529412899E+00   -7.3394496842E+00   -7.3260075142E+00   -7.3126144982E+00
   -7.2992702869E+00   -7.2859747004E+00   -7.2727274770E+00   -7.2595283547E+00
   -7.2463770715E+00   -7.2332733656E+00   -7.2202169300E+00   -7.2072075107E+00
   -7.1942449012E+00   -7.1813288517E+00   -7.1684591125E+00   -7.1556354338E+00
   -7.1428575661E+00   -7.1301251854E+00   -7.1174381148E+00   -7.1047961275E+00
   -7.0921989853E+00   -7.0796464503E+00   -7.0671382843E+00   -7.0546742368E+00
   -7.0422540128E+00   -7.0298774560E+00   -7.0175443397E+00   -7.0052544366E+00
   -6.9930075200E+00   -6.9808033628E+00   -6.9686417094E+00   -6.9565223116E+00
   -6.9444450061E+00   -6.9324095767E+00   -6.9204158069E+00   -6.9084634804E+00
   -6.8965523807E+00   -6.8846822544E+00   -6.8728528834E+00   -6.8610641046E+00
   -6.8493157116E+00   -6.8376074981E+00   -6.8259392577E+00   -6.8143107843E+00
   -6.8027218326E+00   -6.7911722002E+00   -6.7796617298E+00   -6.7681902248E+00
   -6.7567574885E+00   -6.7453633240E+00   -6.7340075349E+00   -6.7226898900E+00
   -6.7114101885E+00   -6.7001682852E+00   -6.6889639924E+00   -6.6777971227E+00
   -6.6666674885E+00   -6.6555749023E+00
  </PP_LOCAL>
 <PP_NONLOCAL>
   <PP_BETA.1
       type="real"
       size=" 602"
       columns="4"
       index="1"
       angular_momentum="0"
       cutoff_radius_index=" 328"
       cutoff_radius="    3.2700000000E+00" >
    0.0000000000E+00   -5.9490464723E-02   -1.1887938420E-01   -1.7806540070E-01
   -2.3694753123E-01   -2.9542535416E-01   -3.5339919502E-01   -4.1077031113E-01
   -4.6744107473E-01   -5.2331515445E-01   -5.7829769469E-01   -6.3229549275E-01
   -6.8521717327E-01   -7.3697335987E-01   -7.8747684354E-01   -8.3664274756E-01
   -8.8438868872E-01   -9.3063493438E-01   -9.7530455536E-01   -1.0183235741E+00
   -1.0596211078E+00   -1.0991295069E+00   -1.1367844872E+00   -1.1725252571E+00
   -1.2062946386E+00   -1.2380391814E+00   -1.2677092718E+00   -1.2952592333E+00
   -1.3206474208E+00   -1.3438363082E+00   -1.3647925672E+00   -1.3834871391E+00
   -1.3998952986E+00   -1.4139967082E+00   -1.4257754677E+00   -1.4352201491E+00
   -1.4423238296E+00   -1.4470841094E+00   -1.4495031255E+00   -1.4495875528E+00
   -1.4473485973E+00   -1.4428019793E+00   -1.4359679079E+00   -1.4268710448E+00
   -1.4155404593E+00   -1.4020095726E+00   -1.3863160935E+00   -1.3685019435E+00
   -1.3486131726E+00   -1.3266998675E+00   -1.3028160441E+00   -1.2770195367E+00
   -1.2493718814E+00   -1.2199381748E+00   -1.1887869398E+00   -1.1559899850E+00
   -1.1216222222E+00   -1.0857615434E+00   -1.0484885918E+00   -1.0098866443E+00
   -9.7004136332E-01   -9.2904064450E-01   -8.8697441278E-01   -8.4393436897E-01
   -8.0001385194E-01   -7.5530757129E-01   -7.0991136962E-01   -6.6392204562E-01
   -6.1743714287E-01   -5.7055460492E-01   -5.2337264363E-01   -4.7598947982E-01
   -4.2850310775E-01   -3.8101108048E-01   -3.3361017416E-01   -2.8639625890E-01
   -2.3946403075E-01   -1.9290677993E-01   -1.4681616235E-01   -1.0128197488E-01
   -5.6391935175E-02   -1.2231466750E-02    3.1116510142E-02    7.3571781102E-02
    1.1505703304E-01    1.5549804186E-01    1.9482385178E-01    2.3296694570E-01
    2.6986340599E-01    3.0545306519E-01    3.3967964600E-01    3.7249089012E-01
    4.0383867532E-01    4.3367912030E-01    4.6197267695E-01    4.8868420948E-01
    5.1378306023E-01    5.3724310176E-01    5.5904266196E-01    5.7916489458E-01
    5.9759746316E-01    6.1433263288E-01    6.2936725488E-01    6.4270273370E-01
    6.5434486711E-01    6.6430414071E-01    6.7259535698E-01    6.7923757839E-01
    6.8425405484E-01    6.8767201044E-01    6.8952289919E-01    6.8984185908E-01
    6.8866768247E-01    6.8604264157E-01    6.8201247708E-01    6.7662601946E-01
    6.6993504109E-01    6.6199419000E-01    6.5286057705E-01    6.4259363982E-01
    6.3125508023E-01    6.1890845504E-01    6.0561877095E-01    5.9145268187E-01
    5.7647821411E-01    5.6076370592E-01    5.4437860284E-01    5.2739319644E-01
    5.0987689095E-01    4.9189979896E-01    4.7353206610E-01    4.5484195656E-01