<UPF version="2.0.1">
  <PP_INFO>

 This pseudopotential file has been produced using the code
 ONCVPSP  (Optimized Norm-Conservinng Vanderbilt PSeudopotential)
 scalar-relativistic version 2.1.1, 03/26/2014 by D. R. Hamann
 The code is available through a link at URL www.mat-simresearch.com.
 Documentation with the package provides a full discription of the
 input data below.


 While it is not required under the terms of the GNU GPL, it is
 suggested that you cite D. R. Hamann, Phys. Rev. B 88, 085117 (2013)
 in any publication using these pseudopotentials.

    <PP_INPUTFILE>
# ATOM AND REFERENCE CONFIGURATION
# atsym  z    nc    nv    iexc   psfile
  Ir 77.00    10     4     4      upf
#
#   n    l    f        energy (Ha)
    1    0    2.00
    2    0    2.00
    2    1    6.00
    3    0    2.00
    3    1    6.00
    3    2   10.00
    4    0    2.00
    4    1    6.00
    4    2   10.00
    4    3   14.00
    5    0    2.00
    5    1    6.00
    6    0    2.00
    5    2    7.00
#
# PSEUDOPOTENTIAL AND OPTIMIZATION
# lmax
    3
#
#   l,   rc,     ep,   ncon, nbas, qcut
    0   2.29513  -3.60092    5    8   7.00413
    1   2.11127  -2.01014    5    8   7.73431
    2   2.29513  -0.26267    5    8   6.62769
    3   2.87898   0.19712    5    8   5.92437
#
# LOCAL POTENTIAL
# lloc, lpopt,  rc(5),   dvloc0
    4    5   1.40737      0.00000
#
# VANDERBILT-KLEINMAN-BYLANDER PROJECTORs
# l, nproj, debl
    0    2   3.36825
    1    2   1.96547
    2    2   1.83951
    3    2   1.41793
#
# MODEL CORE CHARGE
# icmod, fcfact
    0   0.00000
#
# LOG DERIVATIVE ANALYSIS
# epsh1, epsh2, depsh
   -5.00    3.00    0.02
#
# OUTPUT GRID
# rlmax, drl
    6.00    0.01
#
# TEST CONFIGURATIONS
# ncnf
    0
# nvcnf
#   n    l    f
    </PP_INPUTFILE>
  </PP_INFO>
  <!--                               -->
  <!-- END OF HUMAN READABLE SECTION -->
  <!--                               -->
    <PP_HEADER
       generated="Generated using ONCVPSP code by D. R. Hamann"
       author="anonymous"
       date="241015"
       comment=""
       element="Ir"
       pseudo_type="NC"
       relativistic="scalar"
       is_ultrasoft="F"
       is_paw="F"
       is_coulomb="F"
       has_so="F"
       has_wfc="F"
       has_gipaw="T"
       core_correction="F"
       functional="PBE"
       z_valence="   17.00"
       total_psenergy="  -1.05903683117E+02"
       rho_cutoff="   6.01000000000E+00"
       l_max="3"
       l_local="-1"
       mesh_size="   602"
       number_of_wfc="0"
       number_of_proj="8"/>
 <PP_MESH>
   <PP_R type="real"  size=" 602" columns="8">
    0.0000    0.0100    0.0200    0.0300    0.0400    0.0500    0.0600    0.0700
    0.0800    0.0900    0.1000    0.1100    0.1200    0.1300    0.1400    0.1500
    0.1600    0.1700    0.1800    0.1900    0.2000    0.2100    0.2200    0.2300
    0.2400    0.2500    0.2600    0.2700    0.2800    0.2900    0.3000    0.3100
    0.3200    0.3300    0.3400    0.3500    0.3600    0.3700    0.3800    0.3900
    0.4000    0.4100    0.4200    0.4300    0.4400    0.4500    0.4600    0.4700
    0.4800    0.4900    0.5000    0.5100    0.5200    0.5300    0.5400    0.5500
    0.5600    0.5700    0.5800    0.5900    0.6000    0.6100    0.6200    0.6300
    0.6400    0.6500    0.6600    0.6700    0.6800    0.6900    0.7000    0.7100
    0.7200    0.7300    0.7400    0.7500    0.7600    0.7700    0.7800    0.7900
    0.8000    0.8100    0.8200    0.8300    0.8400    0.8500    0.8600    0.8700
    0.8800    0.8900    0.9000    0.9100    0.9200    0.9300    0.9400    0.9500
    0.9600    0.9700    0.9800    0.9900    1.0000    1.0100    1.0200    1.0300
    1.0400    1.0500    1.0600    1.0700    1.0800    1.0900    1.1000    1.1100
    1.1200    1.1300    1.1400    1.1500    1.1600    1.1700    1.1800    1.1900
    1.2000    1.2100    1.2200    1.2300    1.2400    1.2500    1.2600    1.2700
    1.2800    1.2900    1.3000    1.3100    1.3200    1.3300    1.3400    1.3500
    1.3600    1.3700    1.3800    1.3900    1.4000    1.4100    1.4200    1.4300
    1.4400    1.4500    1.4600    1.4700    1.4800    1.4900    1.5000    1.5100
    1.5200    1.5300    1.5400    1.5500    1.5600    1.5700    1.5800    1.5900
    1.6000    1.6100    1.6200    1.6300    1.6400    1.6500    1.6600    1.6700
    1.6800    1.6900    1.7000    1.7100    1.7200    1.7300    1.7400    1.7500
    1.7600    1.7700    1.7800    1.7900    1.8000    1.8100    1.8200    1.8300
    1.8400    1.8500    1.8600    1.8700    1.8800    1.8900    1.9000    1.9100
    1.9200    1.9300    1.9400    1.9500    1.9600    1.9700    1.9800    1.9900
    2.0000    2.0100    2.0200    2.0300    2.0400    2.0500    2.0600    2.0700
    2.0800    2.0900    2.1000    2.1100    2.1200    2.1300    2.1400    2.1500
    2.1600    2.1700    2.1800    2.1900    2.2000    2.2100    2.2200    2.2300
    2.2400    2.2500    2.2600    2.2700    2.2800    2.2900    2.3000    2.3100
    2.3200    2.3300    2.3400    2.3500    2.3600    2.3700    2.3800    2.3900
    2.4000    2.4100    2.4200    2.4300    2.4400    2.4500    2.4600    2.4700
    2.4800    2.4900    2.5000    2.5100    2.5200    2.5300    2.5400    2.5500
    2.5600    2.5700    2.5800    2.5900    2.6000    2.6100    2.6200    2.6300
    2.6400    2.6500    2.6600    2.6700    2.6800    2.6900    2.7000    2.7100
    2.7200    2.7300    2.7400    2.7500    2.7600    2.7700    2.7800    2.7900
    2.8000    2.8100    2.8200    2.8300    2.8400    2.8500    2.8600    2.8700
    2.8800    2.8900    2.9000    2.9100    2.9200    2.9300    2.9400    2.9500
    2.9600    2.9700    2.9800    2.9900    3.0000    3.0100    3.0200    3.0300
    3.0400    3.0500    3.0600    3.0700    3.0800    3.0900    3.1000    3.1100
    3.1200    3.1300    3.1400    3.1500    3.1600    3.1700    3.1800    3.1900
    3.2000    3.2100    3.2200    3.2300    3.2400    3.2500    3.2600    3.2700
    3.2800    3.2900    3.3000    3.3100    3.3200    3.3300    3.3400    3.3500
    3.3600    3.3700    3.3800    3.3900    3.4000    3.4100    3.4200    3.4300
    3.4400    3.4500    3.4600    3.4700    3.4800    3.4900    3.5000    3.5100
    3.5200    3.5300    3.5400    3.5500    3.5600    3.5700    3.5800    3.5900
    3.6000    3.6100    3.6200    3.6300    3.6400    3.6500    3.6600    3.6700
    3.6800    3.6900    3.7000    3.7100    3.7200    3.7300    3.7400    3.7500
    3.7600    3.7700    3.7800    3.7900    3.8000    3.8100    3.8200    3.8300
    3.8400    3.8500    3.8600    3.8700    3.8800    3.8900    3.9000    3.9100
    3.9200    3.9300    3.9400    3.9500    3.9600    3.9700    3.9800    3.9900
    4.0000    4.0100    4.0200    4.0300    4.0400    4.0500    4.0600    4.0700
    4.0800    4.0900    4.1000    4.1100    4.1200    4.1300    4.1400    4.1500
    4.1600    4.1700    4.1800    4.1900    4.2000    4.2100    4.2200    4.2300
    4.2400    4.2500    4.2600    4.2700    4.2800    4.2900    4.3000    4.3100
    4.3200    4.3300    4.3400    4.3500    4.3600    4.3700    4.3800    4.3900
    4.4000    4.4100    4.4200    4.4300    4.4400    4.4500    4.4600    4.4700
    4.4800    4.4900    4.5000    4.5100    4.5200    4.5300    4.5400    4.5500
    4.5600    4.5700    4.5800    4.5900    4.6000    4.6100    4.6200    4.6300
    4.6400    4.6500    4.6600    4.6700    4.6800    4.6900    4.7000    4.7100
    4.7200    4.7300    4.7400    4.7500    4.7600    4.7700    4.7800    4.7900
    4.8000    4.8100    4.8200    4.8300    4.8400    4.8500    4.8600    4.8700
    4.8800    4.8900    4.9000    4.9100    4.9200    4.9300    4.9400    4.9500
    4.9600    4.9700    4.9800    4.9900    5.0000    5.0100    5.0200    5.0300
    5.0400    5.0500    5.0600    5.0700    5.0800    5.0900    5.1000    5.1100
    5.1200    5.1300    5.1400    5.1500    5.1600    5.1700    5.1800    5.1900
    5.2000    5.2100    5.2200    5.2300    5.2400    5.2500    5.2600    5.2700
    5.2800    5.2900    5.3000    5.3100    5.3200    5.3300    5.3400    5.3500
    5.3600    5.3700    5.3800    5.3900    5.4000    5.4100    5.4200    5.4300
    5.4400    5.4500    5.4600    5.4700    5.4800    5.4900    5.5000    5.5100
    5.5200    5.5300    5.5400    5.5500    5.5600    5.5700    5.5800    5.5900
    5.6000    5.6100    5.6200    5.6300    5.6400    5.6500    5.6600    5.6700
    5.6800    5.6900    5.7000    5.7100    5.7200    5.7300    5.7400    5.7500
    5.7600    5.7700    5.7800    5.7900    5.8000    5.8100    5.8200    5.8300
    5.8400    5.8500    5.8600    5.8700    5.8800    5.8900    5.9000    5.9100
    5.9200    5.9300    5.9400    5.9500    5.9600    5.9700    5.9800    5.9900
    6.0000    6.0100
   </PP_R>
   <PP_RAB type="real"  size=" 602" columns="8">
    0.0100    0.0100    0.0100    0.0100    0.0100    0.0100    0.0100    0.0100
    0.0100    0.0100    0.0100    0.0100    0.0100    0.0100    0.0100    0.0100
    0.0100    0.0100    0.0100    0.0100    0.0100    0.0100    0.0100    0.0100
    0.0100    0.0100    0.0100    0.0100    0.0100    0.0100    0.0100    0.0100
    0.0100    0.0100    0.0100    0.0100    0.0100    0.0100    0.0100    0.0100
    0.0100    0.0100    0.0100    0.0100    0.0100    0.0100    0.0100    0.0100
    0.0100    0.0100    0.0100    0.0100    0.0100    0.0100    0.0100    0.0100
    0.0100    0.0100    0.0100    0.0100    0.0100    0.0100    0.0100    0.0100
    0.0100    0.0100    0.0100    0.0100    0.0100    0.0100    0.0100    0.0100
    0.0100    0.0100    0.0100    0.0100    0.0100    0.0100    0.0100    0.0100
    0.0100    0.0100    0.0100    0.0100    0.0100    0.0100    0.0100    0.0100
    0.0100    0.0100    0.0100    0.0100    0.0100    0.0100    0.0100    0.0100
    0.0100    0.0100    0.0100    0.0100    0.0100    0.0100    0.0100    0.0100
    0.0100    0.0100    0.0100    0.0100    0.0100    0.0100    0.0100    0.0100
    0.0100    0.0100    0.0100    0.0100    0.0100    0.0100    0.0100    0.0100
    0.0100    0.0100    0.0100    0.0100    0.0100    0.0100    0.0100    0.0100
    0.0100    0.0100    0.0100    0.0100    0.0100    0.0100    0.0100    0.0100
    0.0100    0.0100    0.0100    0.0100    0.0100    0.0100    0.0100    0.0100
    0.0100    0.0100    0.0100    0.0100    0.0100    0.0100    0.0100    0.0100
    0.0100    0.0100    0.0100    0.0100    0.0100    0.0100    0.0100    0.0100
    0.0100    0.0100    0.0100    0.0100    0.0100    0.0100    0.0100    0.0100
    0.0100    0.0100    0.0100    0.0100    0.0100    0.0100    0.0100    0.0100
    0.0100    0.0100    0.0100    0.0100    0.0100    0.0100    0.0100    0.0100
    0.0100    0.0100    0.0100    0.0100    0.0100    0.0100    0.0100    0.0100
    0.0100    0.0100    0.0100    0.0100    0.0100    0.0100    0.0100    0.0100
    0.0100    0.0100    0.0100    0.0100    0.0100    0.0100    0.0100    0.0100
    0.0100    0.0100    0.0100    0.0100    0.0100    0.0100    0.0100    0.0100
    0.0100    0.0100    0.0100    0.0100    0.0100    0.0100    0.0100    0.0100
    0.0100    0.0100    0.0100    0.0100    0.0100    0.0100    0.0100    0.0100
    0.0100    0.0100    0.0100    0.0100    0.0100    0.0100    0.0100    0.0100
    0.0100    0.0100    0.0100    0.0100    0.0100    0.0100    0.0100    0.0100
    0.0100    0.0100    0.0100    0.0100    0.0100    0.0100    0.0100    0.0100
    0.0100    0.0100    0.0100    0.0100    0.0100    0.0100    0.0100    0.0100
    0.0100    0.0100    0.0100    0.0100    0.0100    0.0100    0.0100    0.0100
    0.0100    0.0100    0.0100    0.0100    0.0100    0.0100    0.0100    0.0100
    0.0100    0.0100    0.0100    0.0100    0.0100    0.0100    0.0100    0.0100
    0.0100    0.0100    0.0100    0.0100    0.0100    0.0100    0.0100    0.0100
    0.0100    0.0100    0.0100    0.0100    0.0100    0.0100    0.0100    0.0100
    0.0100    0.0100    0.0100    0.0100    0.0100    0.0100    0.0100    0.0100
    0.0100    0.0100    0.0100    0.0100    0.0100    0.0100    0.0100    0.0100
    0.0100    0.0100    0.0100    0.0100    0.0100    0.0100    0.0100    0.0100
    0.0100    0.0100    0.0100    0.0100    0.0100    0.0100    0.0100    0.0100
    0.0100    0.0100    0.0100    0.0100    0.0100    0.0100    0.0100    0.0100
    0.0100    0.0100    0.0100    0.0100    0.0100    0.0100    0.0100    0.0100
    0.0100    0.0100    0.0100    0.0100    0.0100    0.0100    0.0100    0.0100
    0.0100    0.0100    0.0100    0.0100    0.0100    0.0100    0.0100    0.0100
    0.0100    0.0100    0.0100    0.0100    0.0100    0.0100    0.0100    0.0100
    0.0100    0.0100    0.0100    0.0100    0.0100    0.0100    0.0100    0.0100
    0.0100    0.0100    0.0100    0.0100    0.0100    0.0100    0.0100    0.0100
    0.0100    0.0100    0.0100    0.0100    0.0100    0.0100    0.0100    0.0100
    0.0100    0.0100    0.0100    0.0100    0.0100    0.0100    0.0100    0.0100
    0.0100    0.0100    0.0100    0.0100    0.0100    0.0100    0.0100    0.0100
    0.0100    0.0100    0.0100    0.0100    0.0100    0.0100    0.0100    0.0100
    0.0100    0.0100    0.0100    0.0100    0.0100    0.0100    0.0100    0.0100
    0.0100    0.0100    0.0100    0.0100    0.0100    0.0100    0.0100    0.0100
    0.0100    0.0100    0.0100    0.0100    0.0100    0.0100    0.0100    0.0100
    0.0100    0.0100    0.0100    0.0100    0.0100    0.0100    0.0100    0.0100
    0.0100    0.0100    0.0100    0.0100    0.0100    0.0100    0.0100    0.0100
    0.0100    0.0100    0.0100    0.0100    0.0100    0.0100    0.0100    0.0100
    0.0100    0.0100    0.0100    0.0100    0.0100    0.0100    0.0100    0.0100
    0.0100    0.0100    0.0100    0.0100    0.0100    0.0100    0.0100    0.0100
    0.0100    0.0100    0.0100    0.0100    0.0100    0.0100    0.0100    0.0100
    0.0100    0.0100    0.0100    0.0100    0.0100    0.0100    0.0100    0.0100
    0.0100    0.0100    0.0100    0.0100    0.0100    0.0100    0.0100    0.0100
    0.0100    0.0100    0.0100    0.0100    0.0100    0.0100    0.0100    0.0100
    0.0100    0.0100    0.0100    0.0100    0.0100    0.0100    0.0100    0.0100
    0.0100    0.0100    0.0100    0.0100    0.0100    0.0100    0.0100    0.0100
    0.0100    0.0100    0.0100    0.0100    0.0100    0.0100    0.0100    0.0100
    0.0100    0.0100    0.0100    0.0100    0.0100    0.0100    0.0100    0.0100
    0.0100    0.0100    0.0100    0.0100    0.0100    0.0100    0.0100    0.0100
    0.0100    0.0100    0.0100    0.0100    0.0100    0.0100    0.0100    0.0100
    0.0100    0.0100    0.0100    0.0100    0.0100    0.0100    0.0100    0.0100
    0.0100    0.0100    0.0100    0.0100    0.0100    0.0100    0.0100    0.0100
    0.0100    0.0100    0.0100    0.0100    0.0100    0.0100    0.0100    0.0100
    0.0100    0.0100    0.0100    0.0100    0.0100    0.0100    0.0100    0.0100
    0.0100    0.0100
   </PP_RAB>
 </PP_MESH>
  <PP_LOCAL type="real"  size=" 602" columns="4">
   -5.4339772584E+01   -5.4337365644E+01   -5.4330230258E+01   -5.4318268509E+01
   -5.4301382479E+01   -5.4279446737E+01   -5.4252318226E+01   -5.4219846825E+01
   -5.4181885498E+01   -5.4138299169E+01   -5.4088971705E+01   -5.4033810746E+01
   -5.3972750367E+01   -5.3905751788E+01   -5.3832802493E+01   -5.3753914167E+01
   -5.3669119865E+01   -5.3578470776E+01   -5.3482032890E+01   -5.3379883784E+01
   -5.3272109670E+01   -5.3158802811E+01   -5.3040059318E+01   -5.2915977349E+01
   -5.2786655668E+01   -5.2652192539E+01   -5.2512684913E+01   -5.2368227838E+01
   -5.2218914085E+01   -5.2064833911E+01   -5.1906074958E+01   -5.1742722237E+01
   -5.1574858181E+01   -5.1402562747E+01   -5.1225913552E+01   -5.1044986039E+01
   -5.0859853639E+01   -5.0670587962E+01   -5.0477258981E+01   -5.0279935212E+01
   -5.0078683901E+01   -4.9873571210E+01   -4.9664662391E+01   -4.9452021967E+01
   -4.9235713902E+01   -4.9015801777E+01   -4.8792348958E+01   -4.8565418764E+01
   -4.8335074638E+01   -4.8101380310E+01   -4.7864399966E+01   -4.7624198409E+01
   -4.7380841216E+01   -4.7134394922E+01   -4.6884927137E+01   -4.6632506742E+01
   -4.6377204003E+01   -4.6119090732E+01   -4.5858240408E+01   -4.5594728315E+01
   -4.5328631622E+01   -4.5060029550E+01   -4.4789003351E+01   -4.4515636499E+01
   -4.4240014676E+01   -4.3962225771E+01   -4.3682360012E+01   -4.3400509888E+01
   -4.3116770127E+01   -4.2831237656E+01   -4.2544011632E+01   -4.2255193273E+01
   -4.1964885797E+01   -4.1673194323E+01   -4.1380225730E+01   -4.1086088579E+01
   -4.0790892922E+01   -4.0494750157E+01   -4.0197772868E+01   -3.9900074661E+01
   -3.9601769986E+01   -3.9302973969E+01   -3.9003802231E+01   -3.8704370709E+01
   -3.8404795484E+01   -3.8105192604E+01   -3.7805677917E+01   -3.7506366899E+01
   -3.7207374494E+01   -3.6908814957E+01   -3.6610801701E+01   -3.6313447150E+01
   -3.6016862595E+01   -3.5721158064E+01   -3.5426442183E+01   -3.5132822059E+01
   -3.4840403191E+01   -3.4549289288E+01   -3.4259582149E+01   -3.3971381620E+01
   -3.3684785457E+01   -3.3399889229E+01   -3.3116786223E+01   -3.2835567513E+01
   -3.2556321398E+01   -3.2279133707E+01   -3.2004087622E+01   -3.1731263585E+01
   -3.1460739484E+01   -3.1192589792E+01   -3.0926886110E+01   -3.0663696992E+01
   -3.0403088104E+01   -3.0145121525E+01   -2.9889855797E+01   -2.9637346227E+01
   -2.9387645125E+01   -2.9140800437E+01   -2.8896856468E+01   -2.8655854164E+01
   -2.8417830988E+01   -2.8182819251E+01   -2.7950847908E+01   -2.7721942906E+01
   -2.7496124115E+01   -2.7273407890E+01   -2.7053807560E+01   -2.6837330134E+01
   -2.6623978615E+01   -2.6413753242E+01   -2.6206647075E+01   -2.6002649344E+01
   -2.5801746656E+01   -2.5603917049E+01   -2.5409136103E+01   -2.5217374872E+01
   -2.5028596605E+01   -2.4842762892E+01   -2.4659827621E+01   -2.4479739429E+01
   -2.4302444703E+01   -2.4127879152E+01   -2.3955979201E+01   -2.3786677521E+01
   -2.3619910025E+01   -2.3455613206E+01   -2.3293727426E+01   -2.3134192707E+01
   -2.2976952811E+01   -2.2821951929E+01   -2.2669136382E+01   -2.2518454516E+01
   -2.2369855118E+01   -2.2223290390E+01   -2.2078711583E+01   -2.1936074180E+01
   -2.1795332588E+01   -2.1656444620E+01   -2.1519367914E+01   -2.1384062519E+01
   -2.1250489083E+01   -2.1118609819E+01   -2.0988388158E+01   -2.0859788420E+01
   -2.0732776591E+01   -2.0607319044E+01   -2.0483384102E+01   -2.0360940139E+01
   -2.0239957602E+01   -2.0120406819E+01   -2.0002260158E+01   -1.9885489853E+01
   -1.9770070000E+01   -1.9655974686E+01   -1.9543179560E+01   -1.9431660509E+01
   -1.9321394560E+01   -1.9212359346E+01   -1.9104533114E+01   -1.8997895183E+01
   -1.8892424871E+01   -1.8788103106E+01   -1.8684910155E+01   -1.8582828457E+01
   -1.8481839133E+01   -1.8381925862E+01   -1.8283070983E+01   -1.8185258816E+01
   -1.8088473076E+01   -1.7992698520E+01   -1.7897920167E+01   -1.7804123135E+01
   -1.7711293609E+01   -1.7619417037E+01   -1.7528480471E+01   -1.7438470076E+01
   -1.7349373179E+01   -1.7261176874E+01   -1.7173868558E+01   -1.7087436175E+01
   -1.7001867210E+01   -1.6917150177E+01   -1.6833273022E+01   -1.6750224334E+01
   -1.6667992694E+01   -1.6586566652E+01   -1.6505935311E+01   -1.6426087347E+01
   -1.6347012082E+01   -1.6268698627E+01   -1.6191136219E+01   -1.6114314553E+01
   -1.6038222799E+01   -1.5962851095E+01   -1.5888189256E+01   -1.5814227208E+01
   -1.5740955564E+01   -1.5668364419E+01   -1.5596444505E+01   -1.5525186468E+01
   -1.5454580789E+01   -1.5384618734E+01   -1.5315291071E+01   -1.5246589003E+01
   -1.5178504015E+01   -1.5111027083E+01   -1.5044150136E+01   -1.4977864783E+01
   -1.4912162507E+01   -1.4847035804E+01   -1.4782476487E+01   -1.4718476891E+01
   -1.4655029942E+01   -1.4592127774E+01   -1.4529763690E+01   -1.4467931038E+01
   -1.4406622671E+01   -1.4345832299E+01   -1.4285553331E+01   -1.4225778968E+01
   -1.4166503283E+01   -1.4107719913E+01   -1.4049422514E+01   -1.3991605405E+01
   -1.3934262482E+01   -1.3877387808E+01   -1.3820975938E+01   -1.3765021023E+01
   -1.3709517478E+01   -1.3654460092E+01   -1.3599843276E+01   -1.3545661743E+01
   -1.3491910521E+01   -1.3438584274E+01   -1.3385677972E+01   -1.3333186878E+01
   -1.3281105912E+01   -1.3229430253E+01   -1.3178155401E+01   -1.3127276533E+01
   -1.3076788997E+01   -1.3026688528E+01   -1.2976970560E+01   -1.2927630572E+01
   -1.2878664534E+01   -1.2830068138E+01   -1.2781836960E+01   -1.2733967203E+01
   -1.2686454811E+01   -1.2639295442E+01   -1.2592485512E+01   -1.2546021161E+01
   -1.2499898295E+01   -1.2454113345E+01   -1.2408662700E+01   -1.2363542521E+01
   -1.2318749222E+01   -1.2274279436E+01   -1.2230129586E+01   -1.2186296042E+01
   -1.2142775678E+01   -1.2099565145E+01   -1.2056660855E+01   -1.2014059808E+01
   -1.1971758845E+01   -1.1929754633E+01   -1.1888044064E+01   -1.1846624231E+01
   -1.1805492066E+01   -1.1764644335E+01   -1.1724078372E+01   -1.1683791276E+01
   -1.1643779977E+01   -1.1604041738E+01   -1.1564573889E+01   -1.1525373626E+01
   -1.1486438031E+01   -1.1447764681E+01   -1.1409350939E+01   -1.1371194017E+01
   -1.1333291408E+01   -1.1295640700E+01   -1.1258239371E+01   -1.1221084693E+01
   -1.1184174498E+01   -1.1147506390E+01   -1.1111077875E+01   -1.1074886559E+01
   -1.1038930302E+01   -1.1003206818E+01   -1.0967713654E+01   -1.0932448712E+01
   -1.0897409879E+01   -1.0862594969E+01   -1.0828001603E+01   -1.0793627917E+01
   -1.0759471836E+01   -1.0725531220E+01   -1.0691803924E+01   -1.0658288127E+01
   -1.0624981852E+01   -1.0591883015E+01   -1.0558989667E+01   -1.0526300039E+01
   -1.0493812245E+01   -1.0461524262E+01   -1.0429434312E+01   -1.0397540677E+01
   -1.0365841559E+01   -1.0334335006E+01   -1.0303019376E+01   -1.0271893010E+01
   -1.0240954195E+01   -1.0210201054E+01   -1.0179632053E+01   -1.0149245599E+01
   -1.0119040058E+01   -1.0089013635E+01   -1.0059164877E+01   -1.0029492263E+01
   -9.9999942344E+00   -9.9706690831E+00   -9.9415154103E+00   -9.9125317743E+00
   -9.8837166889E+00   -9.8550685368E+00   -9.8265859504E+00   -9.7982675722E+00
   -9.7701119854E+00   -9.7421176678E+00   -9.7142832614E+00   -9.6866074973E+00
   -9.6590890246E+00   -9.6317264224E+00   -9.6045183203E+00   -9.5774635426E+00
   -9.5505608012E+00   -9.5238087813E+00   -9.4972060820E+00   -9.4707516228E+00
   -9.4444441759E+00   -9.4182825131E+00   -9.3922652590E+00   -9.3663913581E+00
   -9.3406596630E+00   -9.3150690029E+00   -9.2896181163E+00   -9.2643058715E+00
   -9.2391312320E+00   -9.2140930813E+00   -9.1891902785E+00   -9.1644216007E+00
   -9.1397861216E+00   -9.1152827771E+00   -9.0909105027E+00   -9.0666681201E+00
   -9.0425546658E+00   -9.0185691726E+00   -8.9947106258E+00   -8.9709779758E+00
   -8.9473701303E+00   -8.9238862438E+00   -8.9005253488E+00   -8.8772864777E+00
   -8.8541685598E+00   -8.8311707092E+00   -8.8082920547E+00   -8.7855316740E+00
   -8.7628886336E+00   -8.7403618882E+00   -8.7179506946E+00   -8.6956541734E+00
   -8.6734714451E+00   -8.6514015683E+00   -8.6294436561E+00   -8.6075969558E+00
   -8.5858606290E+00   -8.5642338371E+00   -8.5427156405E+00   -8.5213052860E+00
   -8.5000020170E+00   -8.4788050340E+00   -8.4577135375E+00   -8.4367265991E+00
   -8.4158435739E+00   -8.3950637085E+00   -8.3743862407E+00   -8.3538103924E+00
   -8.3333353017E+00   -8.3129603609E+00   -8.2926848434E+00   -8.2725080224E+00
   -8.2524291399E+00   -8.2324474059E+00   -8.2125622295E+00   -8.1927729178E+00
   -8.1730787780E+00   -8.1534790788E+00   -8.1339730822E+00   -8.1145602201E+00
   -8.0952398319E+00   -8.0760112569E+00   -8.0568737972E+00   -8.0378267478E+00
   -8.0188695690E+00   -8.0000016312E+00   -7.9812223045E+00   -7.9625309301E+00
   -7.9439268181E+00   -7.9254094634E+00   -7.9069782655E+00   -7.8886326239E+00
   -7.8703719248E+00   -7.8521954768E+00   -7.8341028142E+00   -7.8160933646E+00
   -7.7981665554E+00   -7.7803218142E+00   -7.7625584601E+00   -7.7448760441E+00
   -7.7272740294E+00   -7.7097518703E+00   -7.6923090210E+00   -7.6749448566E+00
   -7.6576588896E+00   -7.6404506370E+00   -7.6233195787E+00   -7.6062651941E+00
   -7.5892869203E+00   -7.5723842167E+00   -7.5555566586E+00   -7.5388037498E+00
   -7.5221249942E+00   -7.5055198954E+00   -7.4889878488E+00   -7.4725284896E+00
   -7.4561413447E+00   -7.4398259412E+00   -7.4235818061E+00   -7.4074084048E+00
   -7.3913052904E+00   -7.3752720593E+00   -7.3593082605E+00   -7.3434134430E+00
   -7.3275871491E+00   -7.3118288380E+00   -7.2961381773E+00   -7.2805147369E+00
   -7.2649580868E+00   -7.2494677972E+00   -7.2340433863E+00   -7.2186844331E+00
   -7.2033905799E+00   -7.1881614169E+00   -7.1729965339E+00   -7.1578955212E+00
   -7.1428578824E+00   -7.1278832960E+00   -7.1129713851E+00   -7.0981217589E+00
   -7.0833340266E+00   -7.0686077813E+00   -7.0539425689E+00   -7.0393380986E+00
   -7.0247939977E+00   -7.0103098937E+00   -6.9958854139E+00   -6.9815201477E+00
   -6.9672137082E+00   -6.9529657988E+00   -6.9387760642E+00   -6.9246441492E+00
   -6.9105696984E+00   -6.8965523046E+00   -6.8825916309E+00   -6.8686873810E+00
   -6.8548392162E+00   -6.8410467978E+00   -6.8273097870E+00   -6.8136277861E+00
   -6.8000004921E+00   -6.7864276152E+00   -6.7729088324E+00   -6.7594438208E+00
   -6.7460322575E+00   -6.7326737602E+00   -6.7193680443E+00   -6.7061148325E+00
   -6.6929138170E+00   -6.6797646898E+00   -6.6666671432E+00   -6.6536208156E+00
   -6.6406254267E+00   -6.6276807174E+00   -6.6147863942E+00   -6.6019421634E+00
   -6.5891477317E+00   -6.5764027636E+00   -6.5637069695E+00   -6.5510601138E+00
   -6.5384619165E+00   -6.5259120978E+00   -6.5134103780E+00   -6.5009564528E+00
   -6.4885500106E+00   -6.4761908441E+00   -6.4638786865E+00   -6.4516132708E+00
   -6.4393943302E+00   -6.4272215969E+00   -6.4150947258E+00   -6.4030135416E+00
   -6.3909777901E+00   -6.3789872168E+00   -6.3670415674E+00   -6.3551405874E+00
   -6.3432839693E+00   -6.3314714927E+00   -6.3197029418E+00   -6.3079780741E+00
   -6.2962966471E+00   -6.2846584182E+00   -6.2730631259E+00   -6.2615104904E+00
   -6.2500003392E+00   -6.2385324410E+00   -6.2271065647E+00   -6.2157224789E+00
   -6.2043799524E+00   -6.1930786977E+00   -6.1818185278E+00   -6.1705992421E+00
   -6.1594206199E+00   -6.1482824410E+00   -6.1371844848E+00   -6.1261265187E+00
   -6.1151082741E+00   -6.1041296025E+00   -6.0931902937E+00   -6.0822901376E+00
   -6.0714289240E+00   -6.0606064426E+00   -6.0498224465E+00   -6.0390767309E+00
   -6.0283691315E+00   -6.0176994479E+00   -6.0070674797E+00   -5.9964730264E+00
   -5.9859158878E+00   -5.9753958091E+00   -5.9649126345E+00   -5.9544661896E+00
   -5.9440562832E+00   -5.9336827244E+00   -5.9233453220E+00   -5.9130438851E+00
   -5.9027781575E+00   -5.8925480178E+00   -5.8823532874E+00   -5.8721937842E+00
   -5.8620693260E+00   -5.8519797307E+00   -5.8419248129E+00   -5.8319043302E+00
   -5.8219181725E+00   -5.8119661663E+00   -5.8020481377E+00   -5.7921639133E+00
   -5.7823133192E+00   -5.7724961776E+00   -5.7627122582E+00   -5.7529614565E+00
   -5.7432436071E+00   -5.7335585442E+00   -5.7239061024E+00   -5.7142861161E+00
   -5.7046984196E+00   -5.6951427839E+00   -5.6856191141E+00   -5.6761272526E+00
   -5.6666670416E+00   -5.6572383233E+00
  </PP_LOCAL>
 <PP_NONLOCAL>
   <PP_BETA.1
       type="real"
       size=" 602"
       columns="4"
       index="1"
       angular_momentum="0"
       cutoff_radius_index=" 292"
       cutoff_radius="    2.9100000000E+00" >
    0.0000000000E+00   -5.6525232496E-02   -1.1296828960E-01   -1.6924710563E-01
   -2.2527983436E-01   -2.8098495895E-01   -3.3628140213E-01   -3.9108863660E-01
   -4.4532679586E-01   -4.9891678535E-01   -5.5178039410E-01   -6.0384040679E-01
   -6.5502071627E-01   -7.0524643655E-01   -7.5444401620E-01   -8.0254135214E-01
   -8.4946790368E-01   -8.9515480690E-01   -9.3953498898E-01   -9.8254328270E-01
   -1.0241165405E+00   -1.0641937485E+00   -1.1027161396E+00   -1.1396273063E+00
   -1.1748733117E+00   -1.2084027999E+00   -1.2401671047E+00   -1.2701203560E+00
   -1.2982195842E+00   -1.3244248221E+00   -1.3486992036E+00   -1.3710090593E+00
   -1.3913240082E+00   -1.4096170449E+00   -1.4258646239E+00   -1.4400467354E+00
   -1.4521469806E+00   -1.4621526368E+00   -1.4700547170E+00   -1.4758480272E+00
   -1.4795312101E+00   -1.4811067853E+00   -1.4805811807E+00   -1.4779647558E+00
   -1.4732718159E+00   -1.4665206178E+00   -1.4577333658E+00   -1.4469361983E+00
   -1.4341591639E+00   -1.4194361900E+00   -1.4028050375E+00   -1.3843072462E+00
   -1.3639880722E+00   -1.3418964100E+00   -1.3180847096E+00   -1.2926088757E+00
   -1.2655281640E+00   -1.2369050609E+00   -1.2068051562E+00   -1.1752970005E+00
   -1.1424519691E+00   -1.1083440747E+00   -1.0730498458E+00   -1.0366480965E+00
   -9.9921976942E-01   -9.6084776733E-01   -9.2161668516E-01   -8.8161264530E-01
   -8.4092308588E-01   -7.9963655376E-01   -7.5784239393E-01   -7.1563060377E-01
   -6.7309157222E-01   -6.3031584104E-01   -5.8739389149E-01   -5.4441582450E-01
   -5.0147117843E-01   -4.5864868308E-01   -4.1603601106E-01   -3.7371953807E-01
   -3.3178410618E-01   -2.9031279077E-01   -2.4938667213E-01   -2.0908461258E-01
   -1.6948303989E-01   -1.3065573784E-01   -9.2673644798E-02   -5.5604661075E-02
   -1.9513465801E-02    1.5538655844E-02    4.9493974359E-02    8.2298465876E-02
    1.1390194968E-01    1.4425821262E-01    1.7332511991E-01    2.0106471166E-01
    2.2744322417E-01    2.5243128949E-01    2.7600396662E-01    2.9814068672E-01
    3.1882531912E-01    3.3804617564E-01    3.5579599922E-01    3.7207179870E-01
    3.8687524888E-01    4.0021221604E-01    4.1209278776E-01    4.2253119501E-01
    4.3154559489E-01    4.3915835640E-01    4.4539553303E-01    4.5028680317E-01
    4.5386529383E-01    4.5616758309E-01    4.5723337546E-01    4.5710526702E-01
    4.5582864352E-01    4.5345144833E-01    4.5002385364E-01    4.4559815061E-01
    4.4022863113E-01    4.3397085042E-01    4.2688179603E-01    4.1902000180E-01
    4.1044410465E-01    4.0121347879E-01    3.9138847019E-01    3.8102850672E-01
    3.7019289653E-01    3.5894152053E-01    3.4733195884E-01    3.3542116561E-01