<UPF version="2.0.1">
  <PP_INFO>

 This pseudopotential file has been produced using the code
 ONCVPSP  (Optimized Norm-Conservinng Vanderbilt PSeudopotential)
 scalar-relativistic version 2.1.1, 03/26/2014 by D. R. Hamann
 The code is available through a link at URL www.mat-simresearch.com.
 Documentation with the package provides a full discription of the
 input data below.


 While it is not required under the terms of the GNU GPL, it is
 suggested that you cite D. R. Hamann, Phys. Rev. B 88, 085117 (2013)
 in any publication using these pseudopotentials.

    <PP_INPUTFILE>
# ATOM AND REFERENCE CONFIGURATION
# atsym  z    nc    nv    iexc   psfile
  Na 11.00     1     3     4      upf
#
#   n    l    f        energy (Ha)
    1    0    2.00
    2    0    2.00
    2    1    6.00
    3    0    1.00
#
# PSEUDOPOTENTIAL AND OPTIMIZATION
# lmax
    1
#
#   l,   rc,     ep,   ncon, nbas, qcut
    0   1.46091  -2.08564    5    8  11.34970
    1   2.29870  -1.05371    5    8   6.70750
#
# LOCAL POTENTIAL
# lloc, lpopt,  rc(5),   dvloc0
    4    5   1.31220      0.00000
#
# VANDERBILT-KLEINMAN-BYLANDER PROJECTORs
# l, nproj, debl
    0    2   1.98480
    1    2   1.02640
#
# MODEL CORE CHARGE
# icmod, fcfact
    0   0.00000
#
# LOG DERIVATIVE ANALYSIS
# epsh1, epsh2, depsh
   -5.00    3.00    0.02
#
# OUTPUT GRID
# rlmax, drl
    6.00    0.01
#
# TEST CONFIGURATIONS
# ncnf
    0
# nvcnf
#   n    l    f
    </PP_INPUTFILE>
  </PP_INFO>
  <!--                               -->
  <!-- END OF HUMAN READABLE SECTION -->
  <!--                               -->
    <PP_HEADER
       generated="Generated using ONCVPSP code by D. R. Hamann"
       author="anonymous"
       date="241015"
       comment=""
       element="Na"
       pseudo_type="NC"
       relativistic="scalar"
       is_ultrasoft="F"
       is_paw="F"
       is_coulomb="F"
       has_so="F"
       has_wfc="F"
       has_gipaw="T"
       core_correction="F"
       functional="PBE"
       z_valence="    9.00"
       total_psenergy="  -4.25520115435E+01"
       rho_cutoff="   6.01000000000E+00"
       l_max="1"
       l_local="-1"
       mesh_size="   602"
       number_of_wfc="0"
       number_of_proj="4"/>
 <PP_MESH>
   <PP_R type="real"  size=" 602" columns="8">
    0.0000    0.0100    0.0200    0.0300    0.0400    0.0500    0.0600    0.0700
    0.0800    0.0900    0.1000    0.1100    0.1200    0.1300    0.1400    0.1500
    0.1600    0.1700    0.1800    0.1900    0.2000    0.2100    0.2200    0.2300
    0.2400    0.2500    0.2600    0.2700    0.2800    0.2900    0.3000    0.3100
    0.3200    0.3300    0.3400    0.3500    0.3600    0.3700    0.3800    0.3900
    0.4000    0.4100    0.4200    0.4300    0.4400    0.4500    0.4600    0.4700
    0.4800    0.4900    0.5000    0.5100    0.5200    0.5300    0.5400    0.5500
    0.5600    0.5700    0.5800    0.5900    0.6000    0.6100    0.6200    0.6300
    0.6400    0.6500    0.6600    0.6700    0.6800    0.6900    0.7000    0.7100
    0.7200    0.7300    0.7400    0.7500    0.7600    0.7700    0.7800    0.7900
    0.8000    0.8100    0.8200    0.8300    0.8400    0.8500    0.8600    0.8700
    0.8800    0.8900    0.9000    0.9100    0.9200    0.9300    0.9400    0.9500
    0.9600    0.9700    0.9800    0.9900    1.0000    1.0100    1.0200    1.0300
    1.0400    1.0500    1.0600    1.0700    1.0800    1.0900    1.1000    1.1100
    1.1200    1.1300    1.1400    1.1500    1.1600    1.1700    1.1800    1.1900
    1.2000    1.2100    1.2200    1.2300    1.2400    1.2500    1.2600    1.2700
    1.2800    1.2900    1.3000    1.3100    1.3200    1.3300    1.3400    1.3500
    1.3600    1.3700    1.3800    1.3900    1.4000    1.4100    1.4200    1.4300
    1.4400    1.4500    1.4600    1.4700    1.4800    1.4900    1.5000    1.5100
    1.5200    1.5300    1.5400    1.5500    1.5600    1.5700    1.5800    1.5900
    1.6000    1.6100    1.6200    1.6300    1.6400    1.6500    1.6600    1.6700
    1.6800    1.6900    1.7000    1.7100    1.7200    1.7300    1.7400    1.7500
    1.7600    1.7700    1.7800    1.7900    1.8000    1.8100    1.8200    1.8300
    1.8400    1.8500    1.8600    1.8700    1.8800    1.8900    1.9000    1.9100
    1.9200    1.9300    1.9400    1.9500    1.9600    1.9700    1.9800    1.9900
    2.0000    2.0100    2.0200    2.0300    2.0400    2.0500    2.0600    2.0700
    2.0800    2.0900    2.1000    2.1100    2.1200    2.1300    2.1400    2.1500
    2.1600    2.1700    2.1800    2.1900    2.2000    2.2100    2.2200    2.2300
    2.2400    2.2500    2.2600    2.2700    2.2800    2.2900    2.3000    2.3100
    2.3200    2.3300    2.3400    2.3500    2.3600    2.3700    2.3800    2.3900
    2.4000    2.4100    2.4200    2.4300    2.4400    2.4500    2.4600    2.4700
    2.4800    2.4900    2.5000    2.5100    2.5200    2.5300    2.5400    2.5500
    2.5600    2.5700    2.5800    2.5900    2.6000    2.6100    2.6200    2.6300
    2.6400    2.6500    2.6600    2.6700    2.6800    2.6900    2.7000    2.7100
    2.7200    2.7300    2.7400    2.7500    2.7600    2.7700    2.7800    2.7900
    2.8000    2.8100    2.8200    2.8300    2.8400    2.8500    2.8600    2.8700
    2.8800    2.8900    2.9000    2.9100    2.9200    2.9300    2.9400    2.9500
    2.9600    2.9700    2.9800    2.9900    3.0000    3.0100    3.0200    3.0300
    3.0400    3.0500    3.0600    3.0700    3.0800    3.0900    3.1000    3.1100
    3.1200    3.1300    3.1400    3.1500    3.1600    3.1700    3.1800    3.1900
    3.2000    3.2100    3.2200    3.2300    3.2400    3.2500    3.2600    3.2700
    3.2800    3.2900    3.3000    3.3100    3.3200    3.3300    3.3400    3.3500
    3.3600    3.3700    3.3800    3.3900    3.4000    3.4100    3.4200    3.4300
    3.4400    3.4500    3.4600    3.4700    3.4800    3.4900    3.5000    3.5100
    3.5200    3.5300    3.5400    3.5500    3.5600    3.5700    3.5800    3.5900
    3.6000    3.6100    3.6200    3.6300    3.6400    3.6500    3.6600    3.6700
    3.6800    3.6900    3.7000    3.7100    3.7200    3.7300    3.7400    3.7500
    3.7600    3.7700    3.7800    3.7900    3.8000    3.8100    3.8200    3.8300
    3.8400    3.8500    3.8600    3.8700    3.8800    3.8900    3.9000    3.9100
    3.9200    3.9300    3.9400    3.9500    3.9600    3.9700    3.9800    3.9900
    4.0000    4.0100    4.0200    4.0300    4.0400    4.0500    4.0600    4.0700
    4.0800    4.0900    4.1000    4.1100    4.1200    4.1300    4.1400    4.1500
    4.1600    4.1700    4.1800    4.1900    4.2000    4.2100    4.2200    4.2300
    4.2400    4.2500    4.2600    4.2700    4.2800    4.2900    4.3000    4.3100
    4.3200    4.3300    4.3400    4.3500    4.3600    4.3700    4.3800    4.3900
    4.4000    4.4100    4.4200    4.4300    4.4400    4.4500    4.4600    4.4700
    4.4800    4.4900    4.5000    4.5100    4.5200    4.5300    4.5400    4.5500
    4.5600    4.5700    4.5800    4.5900    4.6000    4.6100    4.6200    4.6300
    4.6400    4.6500    4.6600    4.6700    4.6800    4.6900    4.7000    4.7100
    4.7200    4.7300    4.7400    4.7500    4.7600    4.7700    4.7800    4.7900
    4.8000    4.8100    4.8200    4.8300    4.8400    4.8500    4.8600    4.8700
    4.8800    4.8900    4.9000    4.9100    4.9200    4.9300    4.9400    4.9500
    4.9600    4.9700    4.9800    4.9900    5.0000    5.0100    5.0200    5.0300
    5.0400    5.0500    5.0600    5.0700    5.0800    5.0900    5.1000    5.1100
    5.1200    5.1300    5.1400    5.1500    5.1600    5.1700    5.1800    5.1900
    5.2000    5.2100    5.2200    5.2300    5.2400    5.2500    5.2600    5.2700
    5.2800    5.2900    5.3000    5.3100    5.3200    5.3300    5.3400    5.3500
    5.3600    5.3700    5.3800    5.3900    5.4000    5.4100    5.4200    5.4300
    5.4400    5.4500    5.4600    5.4700    5.4800    5.4900    5.5000    5.5100
    5.5200    5.5300    5.5400    5.5500    5.5600    5.5700    5.5800    5.5900
    5.6000    5.6100    5.6200    5.6300    5.6400    5.6500    5.6600    5.6700
    5.6800    5.6900    5.7000    5.7100    5.7200    5.7300    5.7400    5.7500
    5.7600    5.7700    5.7800    5.7900    5.8000    5.8100    5.8200    5.8300
    5.8400    5.8500    5.8600    5.8700    5.8800    5.8900    5.9000    5.9100
    5.9200    5.9300    5.9400    5.9500    5.9600    5.9700    5.9800    5.9900
    6.0000    6.0100
   </PP_R>
   <PP_RAB type="real"  size=" 602" columns="8">
    0.0100    0.0100    0.0100    0.0100    0.0100    0.0100    0.0100    0.0100
    0.0100    0.0100    0.0100    0.0100    0.0100    0.0100    0.0100    0.0100
    0.0100    0.0100    0.0100    0.0100    0.0100    0.0100    0.0100    0.0100
    0.0100    0.0100    0.0100    0.0100    0.0100    0.0100    0.0100    0.0100
    0.0100    0.0100    0.0100    0.0100    0.0100    0.0100    0.0100    0.0100
    0.0100    0.0100    0.0100    0.0100    0.0100    0.0100    0.0100    0.0100
    0.0100    0.0100    0.0100    0.0100    0.0100    0.0100    0.0100    0.0100
    0.0100    0.0100    0.0100    0.0100    0.0100    0.0100    0.0100    0.0100
    0.0100    0.0100    0.0100    0.0100    0.0100    0.0100    0.0100    0.0100
    0.0100    0.0100    0.0100    0.0100    0.0100    0.0100    0.0100    0.0100
    0.0100    0.0100    0.0100    0.0100    0.0100    0.0100    0.0100    0.0100
    0.0100    0.0100    0.0100    0.0100    0.0100    0.0100    0.0100    0.0100
    0.0100    0.0100    0.0100    0.0100    0.0100    0.0100    0.0100    0.0100
    0.0100    0.0100    0.0100    0.0100    0.0100    0.0100    0.0100    0.0100
    0.0100    0.0100    0.0100    0.0100    0.0100    0.0100    0.0100    0.0100
    0.0100    0.0100    0.0100    0.0100    0.0100    0.0100    0.0100    0.0100
    0.0100    0.0100    0.0100    0.0100    0.0100    0.0100    0.0100    0.0100
    0.0100    0.0100    0.0100    0.0100    0.0100    0.0100    0.0100    0.0100
    0.0100    0.0100    0.0100    0.0100    0.0100    0.0100    0.0100    0.0100
    0.0100    0.0100    0.0100    0.0100    0.0100    0.0100    0.0100    0.0100
    0.0100    0.0100    0.0100    0.0100    0.0100    0.0100    0.0100    0.0100
    0.0100    0.0100    0.0100    0.0100    0.0100    0.0100    0.0100    0.0100
    0.0100    0.0100    0.0100    0.0100    0.0100    0.0100    0.0100    0.0100
    0.0100    0.0100    0.0100    0.0100    0.0100    0.0100    0.0100    0.0100
    0.0100    0.0100    0.0100    0.0100    0.0100    0.0100    0.0100    0.0100
    0.0100    0.0100    0.0100    0.0100    0.0100    0.0100    0.0100    0.0100
    0.0100    0.0100    0.0100    0.0100    0.0100    0.0100    0.0100    0.0100
    0.0100    0.0100    0.0100    0.0100    0.0100    0.0100    0.0100    0.0100
    0.0100    0.0100    0.0100    0.0100    0.0100    0.0100    0.0100    0.0100
    0.0100    0.0100    0.0100    0.0100    0.0100    0.0100    0.0100    0.0100
    0.0100    0.0100    0.0100    0.0100    0.0100    0.0100    0.0100    0.0100
    0.0100    0.0100    0.0100    0.0100    0.0100    0.0100    0.0100    0.0100
    0.0100    0.0100    0.0100    0.0100    0.0100    0.0100    0.0100    0.0100
    0.0100    0.0100    0.0100    0.0100    0.0100    0.0100    0.0100    0.0100
    0.0100    0.0100    0.0100    0.0100    0.0100    0.0100    0.0100    0.0100
    0.0100    0.0100    0.0100    0.0100    0.0100    0.0100    0.0100    0.0100
    0.0100    0.0100    0.0100    0.0100    0.0100    0.0100    0.0100    0.0100
    0.0100    0.0100    0.0100    0.0100    0.0100    0.0100    0.0100    0.0100
    0.0100    0.0100    0.0100    0.0100    0.0100    0.0100    0.0100    0.0100
    0.0100    0.0100    0.0100    0.0100    0.0100    0.0100    0.0100    0.0100
    0.0100    0.0100    0.0100    0.0100    0.0100    0.0100    0.0100    0.0100
    0.0100    0.0100    0.0100    0.0100    0.0100    0.0100    0.0100    0.0100
    0.0100    0.0100    0.0100    0.0100    0.0100    0.0100    0.0100    0.0100
    0.0100    0.0100    0.0100    0.0100    0.0100    0.0100    0.0100    0.0100
    0.0100    0.0100    0.0100    0.0100    0.0100    0.0100    0.0100    0.0100
    0.0100    0.0100    0.0100    0.0100    0.0100    0.0100    0.0100    0.0100
    0.0100    0.0100    0.0100    0.0100    0.0100    0.0100    0.0100    0.0100
    0.0100    0.0100    0.0100    0.0100    0.0100    0.0100    0.0100    0.0100
    0.0100    0.0100    0.0100    0.0100    0.0100    0.0100    0.0100    0.0100
    0.0100    0.0100    0.0100    0.0100    0.0100    0.0100    0.0100    0.0100
    0.0100    0.0100    0.0100    0.0100    0.0100    0.0100    0.0100    0.0100
    0.0100    0.0100    0.0100    0.0100    0.0100    0.0100    0.0100    0.0100
    0.0100    0.0100    0.0100    0.0100    0.0100    0.0100    0.0100    0.0100
    0.0100    0.0100    0.0100    0.0100    0.0100    0.0100    0.0100    0.0100
    0.0100    0.0100    0.0100    0.0100    0.0100    0.0100    0.0100    0.0100
    0.0100    0.0100    0.0100    0.0100    0.0100    0.0100    0.0100    0.0100
    0.0100    0.0100    0.0100    0.0100    0.0100    0.0100    0.0100    0.0100
    0.0100    0.0100    0.0100    0.0100    0.0100    0.0100    0.0100    0.0100
    0.0100    0.0100    0.0100    0.0100    0.0100    0.0100    0.0100    0.0100
    0.0100    0.0100    0.0100    0.0100    0.0100    0.0100    0.0100    0.0100
    0.0100    0.0100    0.0100    0.0100    0.0100    0.0100    0.0100    0.0100
    0.0100    0.0100    0.0100    0.0100    0.0100    0.0100    0.0100    0.0100
    0.0100    0.0100    0.0100    0.0100    0.0100    0.0100    0.0100    0.0100
    0.0100    0.0100    0.0100    0.0100    0.0100    0.0100    0.0100    0.0100
    0.0100    0.0100    0.0100    0.0100    0.0100    0.0100    0.0100    0.0100
    0.0100    0.0100    0.0100    0.0100    0.0100    0.0100    0.0100    0.0100
    0.0100    0.0100    0.0100    0.0100    0.0100    0.0100    0.0100    0.0100
    0.0100    0.0100    0.0100    0.0100    0.0100    0.0100    0.0100    0.0100
    0.0100    0.0100    0.0100    0.0100    0.0100    0.0100    0.0100    0.0100
    0.0100    0.0100    0.0100    0.0100    0.0100    0.0100    0.0100    0.0100
    0.0100    0.0100    0.0100    0.0100    0.0100    0.0100    0.0100    0.0100
    0.0100    0.0100    0.0100    0.0100    0.0100    0.0100    0.0100    0.0100
    0.0100    0.0100    0.0100    0.0100    0.0100    0.0100    0.0100    0.0100
    0.0100    0.0100    0.0100    0.0100    0.0100    0.0100    0.0100    0.0100
    0.0100    0.0100    0.0100    0.0100    0.0100    0.0100    0.0100    0.0100
    0.0100    0.0100
   </PP_RAB>
 </PP_MESH>
  <PP_LOCAL type="real"  size=" 602" columns="4">
   -2.8975599369E+01   -2.8974353038E+01   -2.8970753536E+01   -2.8964631286E+01
   -2.8955816708E+01   -2.8944099795E+01   -2.8929251941E+01   -2.8911047586E+01
   -2.8889282972E+01   -2.8863790241E+01   -2.8834446122E+01   -2.8801175382E+01
   -2.8763949845E+01   -2.8722784156E+01   -2.8677729462E+01   -2.8628866123E+01
   -2.8576296288E+01   -2.8520136931E+01   -2.8460513701E+01   -2.8397555757E+01
   -2.8331391600E+01   -2.8262145844E+01   -2.8189936826E+01   -2.8114874899E+01
   -2.8037061310E+01   -2.7956587501E+01   -2.7873534794E+01   -2.7787974308E+01
   -2.7699967111E+01   -2.7609564515E+01   -2.7516808499E+01   -2.7421732245E+01
   -2.7324360763E+01   -2.7224711582E+01   -2.7122795555E+01   -2.7018617702E+01
   -2.6912178152E+01   -2.6803473121E+01   -2.6692495983E+01   -2.6579238348E+01
   -2.6463691192E+01   -2.6345845997E+01   -2.6225695867E+01   -2.6103236622E+01
   -2.5978467825E+01   -2.5851393722E+01   -2.5722024079E+01   -2.5590374874E+01
   -2.5456468853E+01   -2.5320335967E+01   -2.5182013557E+01   -2.5041546386E+01
   -2.4898986645E+01   -2.4754393668E+01   -2.4607833442E+01   -2.4459378384E+01
   -2.4309106465E+01   -2.4157100833E+01   -2.4003448917E+01   -2.3848241929E+01
   -2.3691573970E+01   -2.3533541546E+01   -2.3374242788E+01   -2.3213776928E+01
   -2.3052243753E+01   -2.2889743126E+01   -2.2726374584E+01   -2.2562236966E+01
   -2.2397428146E+01   -2.2232044809E+01   -2.2066182240E+01   -2.1899934178E+01
   -2.1733392751E+01   -2.1566648386E+01   -2.1399789775E+01   -2.1232903866E+01
   -2.1066075798E+01   -2.0899388958E+01   -2.0732924978E+01   -2.0566763744E+01
   -2.0400983410E+01   -2.0235660405E+01   -2.0070869444E+01   -1.9906683522E+01
   -1.9743173912E+01   -1.9580410155E+01   -1.9418460031E+01   -1.9257389541E+01
   -1.9097262859E+01   -1.8938142298E+01   -1.8780088250E+01   -1.8623159128E+01
   -1.8467411297E+01   -1.8312899000E+01   -1.8159674273E+01   -1.8007786911E+01
   -1.7857284252E+01   -1.7708211124E+01   -1.7560609772E+01   -1.7414519723E+01
   -1.7269977668E+01   -1.7127017345E+01   -1.6985669561E+01   -1.6845961735E+01
   -1.6707917917E+01   -1.6571558782E+01   -1.6436901460E+01   -1.6303959623E+01
   -1.6172743054E+01   -1.6043257462E+01   -1.5915504875E+01   -1.5789483521E+01
   -1.5665188077E+01   -1.5542608476E+01   -1.5421731290E+01   -1.5302539592E+01
   -1.5185013061E+01   -1.5069127215E+01   -1.4954854932E+01   -1.4842166571E+01
   -1.4731029283E+01   -1.4621408034E+01   -1.4513266222E+01   -1.4406565492E+01
   -1.4301266090E+01   -1.4197327740E+01   -1.4094709519E+01   -1.3993370377E+01
   -1.3893269494E+01   -1.3794366235E+01   -1.3696620945E+01   -1.3599994550E+01
   -1.3504448474E+01   -1.3409947940E+01   -1.3316459564E+01   -1.3223955698E+01
   -1.3132412693E+01   -1.3041808283E+01   -1.2952127232E+01   -1.2863354983E+01
   -1.2775480699E+01   -1.2688497092E+01   -1.2602397285E+01   -1.2517178793E+01
   -1.2432839138E+01   -1.2349378018E+01   -1.2266796155E+01   -1.2185094724E+01
   -1.2104275843E+01   -1.2024341506E+01   -1.1945293831E+01   -1.1867134670E+01
   -1.1789865626E+01   -1.1713487508E+01   -1.1638001042E+01   -1.1563405357E+01
   -1.1489700015E+01   -1.1416882222E+01   -1.1344949986E+01   -1.1273898779E+01
   -1.1203724724E+01   -1.1134421782E+01   -1.1065984193E+01   -1.0998404485E+01
   -1.0931675181E+01   -1.0865787477E+01   -1.0800732393E+01   -1.0736499907E+01
   -1.0673079759E+01   -1.0610460830E+01   -1.0548631789E+01   -1.0487580537E+01
   -1.0427294857E+01   -1.0367761791E+01   -1.0308968397E+01   -1.0250900983E+01
   -1.0193546018E+01   -1.0136889223E+01   -1.0080916595E+01   -1.0025613453E+01
   -9.9709654128E+00   -9.9169576335E+00   -9.8635754123E+00   -9.8108040100E+00
   -9.7586285799E+00   -9.7070346215E+00   -9.6560074668E+00   -9.6055328832E+00
   -9.5555967973E+00   -9.5061852063E+00   -9.4572850901E+00   -9.4088826062E+00
   -9.3609659990E+00   -9.3135221833E+00   -9.2665401713E+00   -9.2200083991E+00
   -9.1739162217E+00   -9.1282540844E+00   -9.0830115001E+00   -9.0381808625E+00
   -8.9937526875E+00   -8.9497201915E+00   -8.9060760133E+00   -8.8628133258E+00
   -8.8199271323E+00   -8.7774106464E+00   -8.7352603706E+00   -8.6934712980E+00
   -8.6520395955E+00   -8.6109623604E+00   -8.5702355899E+00   -8.5298575111E+00
   -8.4898253181E+00   -8.4501368628E+00   -8.4107904700E+00   -8.3717840159E+00
   -8.3331159632E+00   -8.2947846590E+00   -8.2567883278E+00   -8.2191249948E+00
   -8.1817931814E+00   -8.1447902967E+00   -8.1081140623E+00   -8.0717623803E+00
   -8.0357317121E+00   -8.0000194371E+00   -7.9646221705E+00   -7.9295360032E+00
   -7.8947576102E+00   -7.8602829310E+00   -7.8261080148E+00   -7.7922289081E+00
   -7.7586419244E+00   -7.7253431905E+00   -7.6923289347E+00   -7.6595957075E+00
   -7.6271398012E+00   -7.5949577392E+00   -7.5630461653E+00   -7.5314014828E+00
   -7.5000204782E+00   -7.4688999319E+00   -7.4380363979E+00   -7.4074268886E+00
   -7.3770683053E+00   -7.3469573453E+00   -7.3170912173E+00   -7.2874669331E+00
   -7.2580813753E+00   -7.2289318788E+00   -7.2000155886E+00   -7.1713295478E+00
   -7.1428712152E+00   -7.1146378693E+00   -7.0866266896E+00   -7.0588352571E+00
   -7.0312609837E+00   -7.0039011628E+00   -6.9767534960E+00   -6.9498155282E+00
   -6.9230846458E+00   -6.8965586694E+00   -6.8702352588E+00   -6.8441119282E+00
   -6.8181865615E+00   -6.7924569445E+00   -6.7669207227E+00   -6.7415758209E+00
   -6.7164201520E+00   -6.6914514938E+00   -6.6666677946E+00   -6.6420670937E+00
   -6.6176473034E+00   -6.5934063790E+00   -6.5693424853E+00   -6.5454536706E+00
   -6.5217378846E+00   -6.4981934141E+00   -6.4748184116E+00   -6.4516109116E+00
   -6.4285692184E+00   -6.4056916028E+00   -6.3829762345E+00   -6.3604213742E+00
   -6.3380254242E+00   -6.3157866933E+00   -6.2937033889E+00   -6.2717740384E+00
   -6.2499970402E+00   -6.2283706995E+00   -6.2068935059E+00   -6.1855639829E+00
   -6.1643805759E+00   -6.1433416896E+00   -6.1224459781E+00   -6.1016919861E+00
   -6.0810781642E+00   -6.0606031545E+00   -6.0402656123E+00   -6.0200641299E+00
   -5.9999972394E+00   -5.9800637280E+00   -5.9602622733E+00   -5.9405914788E+00
   -5.9210500723E+00   -5.9016368504E+00   -5.8823505525E+00   -5.8631898032E+00
   -5.8441535018E+00   -5.8252404550E+00   -5.8064494278E+00   -5.7877791749E+00
   -5.7692286407E+00   -5.7507966796E+00   -5.7324820790E+00   -5.7142837323E+00
   -5.6962006027E+00   -5.6782315980E+00   -5.6603755344E+00   -5.6426314236E+00
   -5.6249982506E+00   -5.6074749738E+00   -5.5900604431E+00   -5.5727537697E+00
   -5.5555539633E+00   -5.5384600168E+00   -5.5214708606E+00   -5.5045856441E+00
   -5.4878034207E+00   -5.4711232183E+00   -5.4545440409E+00   -5.4380650702E+00
   -5.4216854034E+00   -5.4054041074E+00   -5.3892202448E+00   -5.3731330319E+00
   -5.3571416082E+00   -5.3412450824E+00   -5.3254425615E+00   -5.3097332994E+00
   -5.2941164758E+00   -5.2785912443E+00   -5.2631567430E+00   -5.2478122660E+00
   -5.2325570313E+00   -5.2173902405E+00   -5.2023110500E+00   -5.1873187970E+00
   -5.1724127356E+00   -5.1575921182E+00   -5.1428561086E+00   -5.1282040884E+00
   -5.1136353466E+00   -5.0991491724E+00   -5.0847447762E+00   -5.0704215361E+00
   -5.0561787908E+00   -5.0420158624E+00   -5.0279320172E+00   -5.0139266130E+00
   -4.9999990421E+00   -4.9861486581E+00   -4.9723747863E+00   -4.9586767546E+00
   -4.9450540099E+00   -4.9315059359E+00   -4.9180319166E+00   -4.9046312518E+00
   -4.8913034334E+00   -4.8780478772E+00   -4.8648639956E+00   -4.8517511510E+00
   -4.8387087838E+00   -4.8257363714E+00   -4.8128333539E+00   -4.7999991601E+00
   -4.7872331710E+00   -4.7745349255E+00   -4.7619038897E+00   -4.7493395294E+00
   -4.7368412584E+00   -4.7244085789E+00   -4.7120410132E+00   -4.6997380522E+00
   -4.6874991805E+00   -4.6753238233E+00   -4.6632115687E+00   -4.6511619311E+00
   -4.6391744253E+00   -4.6272485282E+00   -4.6153837600E+00   -4.6035797001E+00
   -4.5918358860E+00   -4.5801518547E+00   -4.5685270815E+00   -4.5569611675E+00
   -4.5454536866E+00   -4.5340041977E+00   -4.5226122528E+00   -4.5112773512E+00
   -4.4999991400E+00   -4.4887771986E+00   -4.4776111062E+00   -4.4665004187E+00
   -4.4554446941E+00   -4.4444435821E+00   -4.4334966816E+00   -4.4226035915E+00
   -4.4117638756E+00   -4.4009771391E+00   -4.3902430372E+00   -4.3795611875E+00
   -4.3689312078E+00   -4.3583526737E+00   -4.3478252258E+00   -4.3373485287E+00
   -4.3269222180E+00   -4.3165459290E+00   -4.3062192528E+00   -4.2959418549E+00
   -4.2857134127E+00   -4.2755335786E+00   -4.2654020051E+00   -4.2553183018E+00
   -4.2452821489E+00   -4.2352932401E+00   -4.2253512440E+00   -4.2154558292E+00
   -4.2056066269E+00   -4.1958033227E+00   -4.1860456297E+00   -4.1763332318E+00
   -4.1666658132E+00   -4.1570430295E+00   -4.1474645630E+00   -4.1379301488E+00
   -4.1284394857E+00   -4.1189922725E+00   -4.1095881923E+00   -4.1002269158E+00
   -4.0909082027E+00   -4.0816317660E+00   -4.0723973184E+00   -4.0632045727E+00
   -4.0540531821E+00   -4.0449429316E+00   -4.0358735479E+00   -4.0268447573E+00
   -4.0178562860E+00   -4.0089078196E+00   -3.9999991136E+00   -3.9911299267E+00
   -3.9822999977E+00   -3.9735090656E+00   -3.9647568519E+00   -3.9560430754E+00
   -3.9473675283E+00   -3.9387299616E+00   -3.9301301265E+00   -3.9215677742E+00
   -3.9130426074E+00   -3.9045544267E+00   -3.8961030034E+00   -3.8876881001E+00
   -3.8793094796E+00   -3.8709668853E+00   -3.8626600661E+00   -3.8543888326E+00
   -3.8461529584E+00   -3.8379522173E+00   -3.8297863831E+00   -3.8216551879E+00
   -3.8135584423E+00   -3.8054959432E+00   -3.7974674751E+00   -3.7894728223E+00
   -3.7815117624E+00   -3.7735840414E+00   -3.7656894996E+00   -3.7578279316E+00
   -3.7499991316E+00   -3.7422028940E+00   -3.7344389915E+00   -3.7267072133E+00
   -3.7190073940E+00   -3.7113393375E+00   -3.7037028478E+00   -3.6960977287E+00
   -3.6885237520E+00   -3.6809807407E+00   -3.6734685268E+00   -3.6659869231E+00
   -3.6585357429E+00   -3.6511147993E+00   -3.6437238663E+00   -3.6363627920E+00
   -3.6290314088E+00   -3.6217295386E+00   -3.6144570030E+00   -3.6072136240E+00
   -3.5999991815E+00   -3.5928135397E+00   -3.5856565350E+00   -3.5785279977E+00
   -3.5714277577E+00   -3.5643556452E+00   -3.5573114491E+00   -3.5502950416E+00
   -3.5433062665E+00   -3.5363449620E+00   -3.5294109659E+00   -3.5225041163E+00
   -3.5156242136E+00   -3.5087711309E+00   -3.5019447222E+00   -3.4951448332E+00
   -3.4883713094E+00   -3.4816239963E+00   -3.4749027087E+00   -3.4682073132E+00
   -3.4615376771E+00   -3.4548936531E+00   -3.4482750940E+00   -3.4416818525E+00
   -3.4351137604E+00   -3.4285706712E+00   -3.4220524679E+00   -3.4155590100E+00
   -3.4090901572E+00   -3.4026457691E+00   -3.3962256970E+00   -3.3898297753E+00
   -3.3834579049E+00   -3.3771099517E+00   -3.3707857821E+00   -3.3644852621E+00
   -3.3582082580E+00   -3.3519546008E+00   -3.3457241899E+00   -3.3395169045E+00
   -3.3333326170E+00   -3.3271711999E+00   -3.3210325256E+00   -3.3149164499E+00
   -3.3088228392E+00   -3.3027515967E+00   -3.2967026007E+00   -3.2906757294E+00
   -3.2846708613E+00   -3.2786878746E+00   -3.2727266123E+00   -3.2667869886E+00
   -3.2608688919E+00   -3.2549722062E+00   -3.2490968157E+00   -3.2432426042E+00
   -3.2374094440E+00   -3.2315972050E+00   -3.2258058039E+00   -3.2200351303E+00
   -3.2142850735E+00   -3.2085555229E+00   -3.2028463679E+00   -3.1971574738E+00
   -3.1914887431E+00   -3.1858400845E+00   -3.1802113926E+00   -3.1746025621E+00
   -3.1690134873E+00   -3.1634440630E+00   -3.1578941509E+00   -3.1523636781E+00
   -3.1468525485E+00   -3.1413606616E+00   -3.1358879170E+00   -3.1304342139E+00
   -3.1249994501E+00   -3.1195834928E+00   -3.1141862805E+00   -3.1088077172E+00
   -3.1034477072E+00   -3.0981061545E+00   -3.0927829634E+00   -3.0874780329E+00
   -3.0821912425E+00   -3.0769225310E+00   -3.0716718072E+00   -3.0664389797E+00
   -3.0612239571E+00   -3.0560266480E+00   -3.0508469559E+00   -3.0456847657E+00
   -3.0405400196E+00   -3.0354126306E+00   -3.0303025115E+00   -3.0252095753E+00
   -3.0201337348E+00   -3.0150749005E+00   -3.0100329565E+00   -3.0050078512E+00
   -2.9999995014E+00   -2.9950078241E+00
  </PP_LOCAL>
 <PP_NONLOCAL>
   <PP_BETA.1
       type="real"
       size=" 602"
       columns="4"
       index="1"
       angular_momentum="0"
       cutoff_radius_index=" 234"
       cutoff_radius="    2.3300000000E+00" >
    0.0000000000E+00    1.2647199783E-01    2.5231215839E-01    3.7689227962E-01
    4.9959140775E-01    6.1979940624E-01    7.3692045871E-01    8.5037648465E-01
    9.5961044688E-01    1.0640895305E+00    1.1633081740E+00    1.2567909335E+00
    1.3440951628E+00    1.4248134923E+00    1.4985760920E+00    1.5650527033E+00
    1.6239544276E+00    1.6750352615E+00    1.7180933653E+00    1.7529720620E+00
    1.7795605536E+00    1.7977943584E+00    1.8076554577E+00    1.8091721564E+00
    1.8024186570E+00    1.7875143490E+00    1.7646228187E+00    1.7339505834E+00
    1.6957455639E+00    1.6502952989E+00    1.5979249159E+00    1.5389948716E+00
    1.4738984898E+00    1.4030592617E+00    1.3269280197E+00    1.2459799141E+00
    1.1607112571E+00    1.0716362287E+00    9.7928356200E-01    8.8419304870E-01
    7.8691204069E-01    6.8799196953E-01    5.8798481147E-01    4.8743959264E-01
    3.8689894367E-01    2.8689572777E-01    1.8794976719E-01    9.0564727174E-02
   -4.7749098721E-03   -9.7606832655E-02   -1.8749339142E-01   -2.7402393898E-01
   -3.5681744363E-01   -4.3552434516E-01   -5.0982780501E-01   -5.7944634770E-01
   -6.4413371607E-01   -7.0368108431E-01   -7.5791658267E-01   -8.0670686530E-01
   -8.4995585024E-01   -8.8760603206E-01   -9.1963675946E-01   -9.4606409763E-01
   -9.6693995655E-01   -9.8235036366E-01   -9.9241430655E-01   -9.9728207706E-01
   -9.9713310352E-01   -9.9217398031E-01   -9.8263622325E-01   -9.6877375333E-01
   -9.5086039061E-01   -9.2918721583E-01   -9.0405984669E-01   -8.7579582497E-01
   -8.4472136379E-01   -8.1116888051E-01   -7.7547417420E-01   -7.3797366014E-01
   -6.9900170024E-01   -6.5888802583E-01   -6.1795527472E-01   -5.7651666247E-01
   -5.3487380655E-01   -4.9331472014E-01   -4.5211199040E-01   -4.1152115434E-01
   -3.7177928298E-01   -3.3310378265E-01   -2.9569141981E-01   -2.5971757349E-01
   -2.2533571703E-01   -1.9267712828E-01   -1.6185082463E-01   -1.3294413799E-01
   -1.0602196890E-01   -8.1128004453E-02   -5.8285694639E-02   -3.7498988420E-02
   -1.8753428445E-02   -2.0173834568E-03    1.2756291629E-02    2.5629847046E-02
    3.6678234057E-02    4.5987378325E-02    5.3652731836E-02    5.9777701468E-02
    6.4472153107E-02    6.7850174358E-02    7.0028684203E-02    7.1126077182E-02
    7.1261449539E-02    7.0550727974E-02    6.9107521214E-02    6.7041932630E-02
    6.4459789870E-02    6.1458482279E-02    5.8129959134E-02    5.4560599299E-02
    5.0826883998E-02    4.6997183322E-02    4.3133752478E-02    3.9290696981E-02
    3.5512214256E-02    3.1837658107E-02    2.8300065280E-02    2.4923979536E-02
    2.1731266691E-02    1.8739325247E-02    1.5961525065E-02    1.3410601659E-02
    1.1098763105E-02    9.0332037663E-03    7.2191370807E-03    5.6527909841E-03
    4.3257298270E-03    3.2269211348E-03    2.3385465488E-03    1.6421896161E-03
    1.1161505068E-03    7.3740742734E-04    4.8177487905E-04    3.2476813204E-04
    2.4163272288E-04    2.1663544070E-04    2.0246791463E-04    9.4881925144E-05