<UPF version="2.0.1">
  <PP_INFO>

 This pseudopotential file has been produced using the code
 ONCVPSP  (Optimized Norm-Conservinng Vanderbilt PSeudopotential)
 scalar-relativistic version 2.1.1, 03/26/2014 by D. R. Hamann
 The code is available through a link at URL www.mat-simresearch.com.
 Documentation with the package provides a full discription of the
 input data below.


 While it is not required under the terms of the GNU GPL, it is
 suggested that you cite D. R. Hamann, Phys. Rev. B 88, 085117 (2013)
 in any publication using these pseudopotentials.

    <PP_INPUTFILE>
# ATOM AND REFERENCE CONFIGURATION
# atsym  z    nc    nv    iexc   psfile
  Os 76.00    10     4     4      upf
#
#   n    l    f        energy (Ha)
    1    0    2.00
    2    0    2.00
    2    1    6.00
    3    0    2.00
    3    1    6.00
    3    2   10.00
    4    0    2.00
    4    1    6.00
    4    2   10.00
    4    3   14.00
    5    0    2.00
    5    1    6.00
    6    0    2.00
    5    2    6.00
#
# PSEUDOPOTENTIAL AND OPTIMIZATION
# lmax
    3
#
#   l,   rc,     ep,   ncon, nbas, qcut
    0   1.74644  -3.36448    5    8   7.69317
    1   1.85377  -1.86833    5    8   7.25952
    2   1.49557  -0.22987    5    8   7.69456
    3   2.58887   0.25270    5    8   4.79818
#
# LOCAL POTENTIAL
# lloc, lpopt,  rc(5),   dvloc0
    4    5   1.19228      0.00000
#
# VANDERBILT-KLEINMAN-BYLANDER PROJECTORs
# l, nproj, debl
    0    2   3.13859
    1    2   1.82169
    2    2   0.80862
    3    2   1.22985
#
# MODEL CORE CHARGE
# icmod, fcfact
    0   0.00000
#
# LOG DERIVATIVE ANALYSIS
# epsh1, epsh2, depsh
   -5.00    3.00    0.02
#
# OUTPUT GRID
# rlmax, drl
    6.00    0.01
#
# TEST CONFIGURATIONS
# ncnf
    0
# nvcnf
#   n    l    f
    </PP_INPUTFILE>
  </PP_INFO>
  <!--                               -->
  <!-- END OF HUMAN READABLE SECTION -->
  <!--                               -->
    <PP_HEADER
       generated="Generated using ONCVPSP code by D. R. Hamann"
       author="anonymous"
       date="241015"
       comment=""
       element="Os"
       pseudo_type="NC"
       relativistic="scalar"
       is_ultrasoft="F"
       is_paw="F"
       is_coulomb="F"
       has_so="F"
       has_wfc="F"
       has_gipaw="T"
       core_correction="F"
       functional="PBE"
       z_valence="   16.00"
       total_psenergy="  -9.16267959760E+01"
       rho_cutoff="   6.01000000000E+00"
       l_max="3"
       l_local="-1"
       mesh_size="   602"
       number_of_wfc="0"
       number_of_proj="8"/>
 <PP_MESH>
   <PP_R type="real"  size=" 602" columns="8">
    0.0000    0.0100    0.0200    0.0300    0.0400    0.0500    0.0600    0.0700
    0.0800    0.0900    0.1000    0.1100    0.1200    0.1300    0.1400    0.1500
    0.1600    0.1700    0.1800    0.1900    0.2000    0.2100    0.2200    0.2300
    0.2400    0.2500    0.2600    0.2700    0.2800    0.2900    0.3000    0.3100
    0.3200    0.3300    0.3400    0.3500    0.3600    0.3700    0.3800    0.3900
    0.4000    0.4100    0.4200    0.4300    0.4400    0.4500    0.4600    0.4700
    0.4800    0.4900    0.5000    0.5100    0.5200    0.5300    0.5400    0.5500
    0.5600    0.5700    0.5800    0.5900    0.6000    0.6100    0.6200    0.6300
    0.6400    0.6500    0.6600    0.6700    0.6800    0.6900    0.7000    0.7100
    0.7200    0.7300    0.7400    0.7500    0.7600    0.7700    0.7800    0.7900
    0.8000    0.8100    0.8200    0.8300    0.8400    0.8500    0.8600    0.8700
    0.8800    0.8900    0.9000    0.9100    0.9200    0.9300    0.9400    0.9500
    0.9600    0.9700    0.9800    0.9900    1.0000    1.0100    1.0200    1.0300
    1.0400    1.0500    1.0600    1.0700    1.0800    1.0900    1.1000    1.1100
    1.1200    1.1300    1.1400    1.1500    1.1600    1.1700    1.1800    1.1900
    1.2000    1.2100    1.2200    1.2300    1.2400    1.2500    1.2600    1.2700
    1.2800    1.2900    1.3000    1.3100    1.3200    1.3300    1.3400    1.3500
    1.3600    1.3700    1.3800    1.3900    1.4000    1.4100    1.4200    1.4300
    1.4400    1.4500    1.4600    1.4700    1.4800    1.4900    1.5000    1.5100
    1.5200    1.5300    1.5400    1.5500    1.5600    1.5700    1.5800    1.5900
    1.6000    1.6100    1.6200    1.6300    1.6400    1.6500    1.6600    1.6700
    1.6800    1.6900    1.7000    1.7100    1.7200    1.7300    1.7400    1.7500
    1.7600    1.7700    1.7800    1.7900    1.8000    1.8100    1.8200    1.8300
    1.8400    1.8500    1.8600    1.8700    1.8800    1.8900    1.9000    1.9100
    1.9200    1.9300    1.9400    1.9500    1.9600    1.9700    1.9800    1.9900
    2.0000    2.0100    2.0200    2.0300    2.0400    2.0500    2.0600    2.0700
    2.0800    2.0900    2.1000    2.1100    2.1200    2.1300    2.1400    2.1500
    2.1600    2.1700    2.1800    2.1900    2.2000    2.2100    2.2200    2.2300
    2.2400    2.2500    2.2600    2.2700    2.2800    2.2900    2.3000    2.3100
    2.3200    2.3300    2.3400    2.3500    2.3600    2.3700    2.3800    2.3900
    2.4000    2.4100    2.4200    2.4300    2.4400    2.4500    2.4600    2.4700
    2.4800    2.4900    2.5000    2.5100    2.5200    2.5300    2.5400    2.5500
    2.5600    2.5700    2.5800    2.5900    2.6000    2.6100    2.6200    2.6300
    2.6400    2.6500    2.6600    2.6700    2.6800    2.6900    2.7000    2.7100
    2.7200    2.7300    2.7400    2.7500    2.7600    2.7700    2.7800    2.7900
    2.8000    2.8100    2.8200    2.8300    2.8400    2.8500    2.8600    2.8700
    2.8800    2.8900    2.9000    2.9100    2.9200    2.9300    2.9400    2.9500
    2.9600    2.9700    2.9800    2.9900    3.0000    3.0100    3.0200    3.0300
    3.0400    3.0500    3.0600    3.0700    3.0800    3.0900    3.1000    3.1100
    3.1200    3.1300    3.1400    3.1500    3.1600    3.1700    3.1800    3.1900
    3.2000    3.2100    3.2200    3.2300    3.2400    3.2500    3.2600    3.2700
    3.2800    3.2900    3.3000    3.3100    3.3200    3.3300    3.3400    3.3500
    3.3600    3.3700    3.3800    3.3900    3.4000    3.4100    3.4200    3.4300
    3.4400    3.4500    3.4600    3.4700    3.4800    3.4900    3.5000    3.5100
    3.5200    3.5300    3.5400    3.5500    3.5600    3.5700    3.5800    3.5900
    3.6000    3.6100    3.6200    3.6300    3.6400    3.6500    3.6600    3.6700
    3.6800    3.6900    3.7000    3.7100    3.7200    3.7300    3.7400    3.7500
    3.7600    3.7700    3.7800    3.7900    3.8000    3.8100    3.8200    3.8300
    3.8400    3.8500    3.8600    3.8700    3.8800    3.8900    3.9000    3.9100
    3.9200    3.9300    3.9400    3.9500    3.9600    3.9700    3.9800    3.9900
    4.0000    4.0100    4.0200    4.0300    4.0400    4.0500    4.0600    4.0700
    4.0800    4.0900    4.1000    4.1100    4.1200    4.1300    4.1400    4.1500
    4.1600    4.1700    4.1800    4.1900    4.2000    4.2100    4.2200    4.2300
    4.2400    4.2500    4.2600    4.2700    4.2800    4.2900    4.3000    4.3100
    4.3200    4.3300    4.3400    4.3500    4.3600    4.3700    4.3800    4.3900
    4.4000    4.4100    4.4200    4.4300    4.4400    4.4500    4.4600    4.4700
    4.4800    4.4900    4.5000    4.5100    4.5200    4.5300    4.5400    4.5500
    4.5600    4.5700    4.5800    4.5900    4.6000    4.6100    4.6200    4.6300
    4.6400    4.6500    4.6600    4.6700    4.6800    4.6900    4.7000    4.7100
    4.7200    4.7300    4.7400    4.7500    4.7600    4.7700    4.7800    4.7900
    4.8000    4.8100    4.8200    4.8300    4.8400    4.8500    4.8600    4.8700
    4.8800    4.8900    4.9000    4.9100    4.9200    4.9300    4.9400    4.9500
    4.9600    4.9700    4.9800    4.9900    5.0000    5.0100    5.0200    5.0300
    5.0400    5.0500    5.0600    5.0700    5.0800    5.0900    5.1000    5.1100
    5.1200    5.1300    5.1400    5.1500    5.1600    5.1700    5.1800    5.1900
    5.2000    5.2100    5.2200    5.2300    5.2400    5.2500    5.2600    5.2700
    5.2800    5.2900    5.3000    5.3100    5.3200    5.3300    5.3400    5.3500
    5.3600    5.3700    5.3800    5.3900    5.4000    5.4100    5.4200    5.4300
    5.4400    5.4500    5.4600    5.4700    5.4800    5.4900    5.5000    5.5100
    5.5200    5.5300    5.5400    5.5500    5.5600    5.5700    5.5800    5.5900
    5.6000    5.6100    5.6200    5.6300    5.6400    5.6500    5.6600    5.6700
    5.6800    5.6900    5.7000    5.7100    5.7200    5.7300    5.7400    5.7500
    5.7600    5.7700    5.7800    5.7900    5.8000    5.8100    5.8200    5.8300
    5.8400    5.8500    5.8600    5.8700    5.8800    5.8900    5.9000    5.9100
    5.9200    5.9300    5.9400    5.9500    5.9600    5.9700    5.9800    5.9900
    6.0000    6.0100
   </PP_R>
   <PP_RAB type="real"  size=" 602" columns="8">
    0.0100    0.0100    0.0100    0.0100    0.0100    0.0100    0.0100    0.0100
    0.0100    0.0100    0.0100    0.0100    0.0100    0.0100    0.0100    0.0100
    0.0100    0.0100    0.0100    0.0100    0.0100    0.0100    0.0100    0.0100
    0.0100    0.0100    0.0100    0.0100    0.0100    0.0100    0.0100    0.0100
    0.0100    0.0100    0.0100    0.0100    0.0100    0.0100    0.0100    0.0100
    0.0100    0.0100    0.0100    0.0100    0.0100    0.0100    0.0100    0.0100
    0.0100    0.0100    0.0100    0.0100    0.0100    0.0100    0.0100    0.0100
    0.0100    0.0100    0.0100    0.0100    0.0100    0.0100    0.0100    0.0100
    0.0100    0.0100    0.0100    0.0100    0.0100    0.0100    0.0100    0.0100
    0.0100    0.0100    0.0100    0.0100    0.0100    0.0100    0.0100    0.0100
    0.0100    0.0100    0.0100    0.0100    0.0100    0.0100    0.0100    0.0100
    0.0100    0.0100    0.0100    0.0100    0.0100    0.0100    0.0100    0.0100
    0.0100    0.0100    0.0100    0.0100    0.0100    0.0100    0.0100    0.0100
    0.0100    0.0100    0.0100    0.0100    0.0100    0.0100    0.0100    0.0100
    0.0100    0.0100    0.0100    0.0100    0.0100    0.0100    0.0100    0.0100
    0.0100    0.0100    0.0100    0.0100    0.0100    0.0100    0.0100    0.0100
    0.0100    0.0100    0.0100    0.0100    0.0100    0.0100    0.0100    0.0100
    0.0100    0.0100    0.0100    0.0100    0.0100    0.0100    0.0100    0.0100
    0.0100    0.0100    0.0100    0.0100    0.0100    0.0100    0.0100    0.0100
    0.0100    0.0100    0.0100    0.0100    0.0100    0.0100    0.0100    0.0100
    0.0100    0.0100    0.0100    0.0100    0.0100    0.0100    0.0100    0.0100
    0.0100    0.0100    0.0100    0.0100    0.0100    0.0100    0.0100    0.0100
    0.0100    0.0100    0.0100    0.0100    0.0100    0.0100    0.0100    0.0100
    0.0100    0.0100    0.0100    0.0100    0.0100    0.0100    0.0100    0.0100
    0.0100    0.0100    0.0100    0.0100    0.0100    0.0100    0.0100    0.0100
    0.0100    0.0100    0.0100    0.0100    0.0100    0.0100    0.0100    0.0100
    0.0100    0.0100    0.0100    0.0100    0.0100    0.0100    0.0100    0.0100
    0.0100    0.0100    0.0100    0.0100    0.0100    0.0100    0.0100    0.0100
    0.0100    0.0100    0.0100    0.0100    0.0100    0.0100    0.0100    0.0100
    0.0100    0.0100    0.0100    0.0100    0.0100    0.0100    0.0100    0.0100
    0.0100    0.0100    0.0100    0.0100    0.0100    0.0100    0.0100    0.0100
    0.0100    0.0100    0.0100    0.0100    0.0100    0.0100    0.0100    0.0100
    0.0100    0.0100    0.0100    0.0100    0.0100    0.0100    0.0100    0.0100
    0.0100    0.0100    0.0100    0.0100    0.0100    0.0100    0.0100    0.0100
    0.0100    0.0100    0.0100    0.0100    0.0100    0.0100    0.0100    0.0100
    0.0100    0.0100    0.0100    0.0100    0.0100    0.0100    0.0100    0.0100
    0.0100    0.0100    0.0100    0.0100    0.0100    0.0100    0.0100    0.0100
    0.0100    0.0100    0.0100    0.0100    0.0100    0.0100    0.0100    0.0100
    0.0100    0.0100    0.0100    0.0100    0.0100    0.0100    0.0100    0.0100
    0.0100    0.0100    0.0100    0.0100    0.0100    0.0100    0.0100    0.0100
    0.0100    0.0100    0.0100    0.0100    0.0100    0.0100    0.0100    0.0100
    0.0100    0.0100    0.0100    0.0100    0.0100    0.0100    0.0100    0.0100
    0.0100    0.0100    0.0100    0.0100    0.0100    0.0100    0.0100    0.0100
    0.0100    0.0100    0.0100    0.0100    0.0100    0.0100    0.0100    0.0100
    0.0100    0.0100    0.0100    0.0100    0.0100    0.0100    0.0100    0.0100
    0.0100    0.0100    0.0100    0.0100    0.0100    0.0100    0.0100    0.0100
    0.0100    0.0100    0.0100    0.0100    0.0100    0.0100    0.0100    0.0100
    0.0100    0.0100    0.0100    0.0100    0.0100    0.0100    0.0100    0.0100
    0.0100    0.0100    0.0100    0.0100    0.0100    0.0100    0.0100    0.0100
    0.0100    0.0100    0.0100    0.0100    0.0100    0.0100    0.0100    0.0100
    0.0100    0.0100    0.0100    0.0100    0.0100    0.0100    0.0100    0.0100
    0.0100    0.0100    0.0100    0.0100    0.0100    0.0100    0.0100    0.0100
    0.0100    0.0100    0.0100    0.0100    0.0100    0.0100    0.0100    0.0100
    0.0100    0.0100    0.0100    0.0100    0.0100    0.0100    0.0100    0.0100
    0.0100    0.0100    0.0100    0.0100    0.0100    0.0100    0.0100    0.0100
    0.0100    0.0100    0.0100    0.0100    0.0100    0.0100    0.0100    0.0100
    0.0100    0.0100    0.0100    0.0100    0.0100    0.0100    0.0100    0.0100
    0.0100    0.0100    0.0100    0.0100    0.0100    0.0100    0.0100    0.0100
    0.0100    0.0100    0.0100    0.0100    0.0100    0.0100    0.0100    0.0100
    0.0100    0.0100    0.0100    0.0100    0.0100    0.0100    0.0100    0.0100
    0.0100    0.0100    0.0100    0.0100    0.0100    0.0100    0.0100    0.0100
    0.0100    0.0100    0.0100    0.0100    0.0100    0.0100    0.0100    0.0100
    0.0100    0.0100    0.0100    0.0100    0.0100    0.0100    0.0100    0.0100
    0.0100    0.0100    0.0100    0.0100    0.0100    0.0100    0.0100    0.0100
    0.0100    0.0100    0.0100    0.0100    0.0100    0.0100    0.0100    0.0100
    0.0100    0.0100    0.0100    0.0100    0.0100    0.0100    0.0100    0.0100
    0.0100    0.0100    0.0100    0.0100    0.0100    0.0100    0.0100    0.0100
    0.0100    0.0100    0.0100    0.0100    0.0100    0.0100    0.0100    0.0100
    0.0100    0.0100    0.0100    0.0100    0.0100    0.0100    0.0100    0.0100
    0.0100    0.0100    0.0100    0.0100    0.0100    0.0100    0.0100    0.0100
    0.0100    0.0100    0.0100    0.0100    0.0100    0.0100    0.0100    0.0100
    0.0100    0.0100    0.0100    0.0100    0.0100    0.0100    0.0100    0.0100
    0.0100    0.0100    0.0100    0.0100    0.0100    0.0100    0.0100    0.0100
    0.0100    0.0100    0.0100    0.0100    0.0100    0.0100    0.0100    0.0100
    0.0100    0.0100    0.0100    0.0100    0.0100    0.0100    0.0100    0.0100
    0.0100    0.0100
   </PP_RAB>
 </PP_MESH>
  <PP_LOCAL type="real"  size=" 602" columns="4">
   -6.2664095452E+01   -6.3529715146E+01   -6.4345129168E+01   -6.4943964436E+01
   -6.5159847866E+01   -6.5093840441E+01   -6.4880494369E+01   -6.4613092871E+01
   -6.4341143847E+01   -6.4084752079E+01   -6.3848191717E+01   -6.3628778793E+01
   -6.3421614770E+01   -6.3221730099E+01   -6.3024868456E+01   -6.2827656352E+01
   -6.2627535935E+01   -6.2422630565E+01   -6.2211609078E+01   -6.1993569589E+01
   -6.1767945118E+01   -6.1534428269E+01   -6.1292910329E+01   -6.1043431807E+01
   -6.0786141764E+01   -6.0521264500E+01   -6.0249072365E+01   -5.9969864263E+01
   -5.9683949003E+01   -5.9391633093E+01   -5.9093212306E+01   -5.8788966432E+01
   -5.8479156587E+01   -5.8164024417E+01   -5.7843792772E+01   -5.7518667256E+01
   -5.7188838291E+01   -5.6854483414E+01   -5.6515769587E+01   -5.6172855267E+01
   -5.5825892277E+01   -5.5475027333E+01   -5.5120403227E+01   -5.4762159696E+01
   -5.4400433975E+01   -5.4035361087E+01   -5.3667073906E+01   -5.3295703037E+01
   -5.2921376575E+01   -5.2544219744E+01   -5.2164354548E+01   -5.1781899438E+01
   -5.1396968979E+01   -5.1009673658E+01   -5.0620119928E+01   -5.0228410176E+01
   -4.9834643218E+01   -4.9438914700E+01   -4.9041317944E+01   -4.8641944830E+01
   -4.8240886942E+01   -4.7838236868E+01   -4.7434089462E+01   -4.7028543305E+01
   -4.6621702103E+01   -4.6213675762E+01   -4.5804581685E+01   -4.5394545745E+01
   -4.4983702771E+01   -4.4572196919E+01   -4.4160182121E+01   -4.3747821755E+01
   -4.3335288184E+01   -4.2922762181E+01   -4.2510432099E+01   -4.2098492881E+01
   -4.1687145132E+01   -4.1276593774E+01   -4.0867046963E+01   -4.0458714948E+01
   -4.0051808976E+01   -3.9646540259E+01   -3.9243119038E+01   -3.8841753726E+01
   -3.8442650153E+01   -3.8046010902E+01   -3.7652034731E+01   -3.7260916069E+01
   -3.6872844583E+01   -3.6488004791E+01   -3.6106575722E+01   -3.5728730600E+01
   -3.5354636550E+01   -3.4984454316E+01   -3.4618337976E+01   -3.4256434746E+01
   -3.3898884607E+01   -3.3545819742E+01   -3.3197364579E+01   -3.2853635333E+01
   -3.2514739657E+01   -3.2180776298E+01   -3.1851835050E+01   -3.1527995878E+01
   -3.1209328237E+01   -3.0895891503E+01   -3.0587734325E+01   -3.0284894675E+01
   -2.9987399207E+01   -2.9695261463E+01   -2.9408483593E+01   -2.9127055441E+01
   -2.8850955958E+01   -2.8580147764E+01   -2.8314581635E+01   -2.8054195331E+01
   -2.7798914766E+01   -2.7548647752E+01   -2.7303289890E+01   -2.7062724569E+01
   -2.6826817578E+01   -2.6595430239E+01   -2.6368424652E+01   -2.6145667181E+01
   -2.5927030403E+01   -2.5712390182E+01   -2.5501625784E+01   -2.5294622748E+01
   -2.5091269350E+01   -2.4891457025E+01   -2.4695083284E+01   -2.4502047803E+01
   -2.4312253793E+01   -2.4125609753E+01   -2.3942025752E+01   -2.3761416335E+01
   -2.3583699851E+01   -2.3408795737E+01   -2.3236629193E+01   -2.3067126645E+01
   -2.2900217307E+01   -2.2735834500E+01   -2.2573911801E+01   -2.2414387515E+01
   -2.2257200687E+01   -2.2102292718E+01   -2.1949607822E+01   -2.1799090189E+01
   -2.1650688054E+01   -2.1504349168E+01   -2.1360024529E+01   -2.1217666188E+01
   -2.1077227977E+01   -2.0938666750E+01   -2.0801939655E+01   -2.0667008036E+01
   -2.0533832327E+01   -2.0402376323E+01   -2.0272602671E+01   -2.0144478092E+01
   -2.0017968585E+01   -1.9893042800E+01   -1.9769669396E+01   -1.9647819048E+01
   -1.9527462812E+01   -1.9408573196E+01   -1.9291123320E+01   -1.9175087384E+01
   -1.9060440265E+01   -1.8947157706E+01   -1.8835216058E+01   -1.8724592444E+01
   -1.8615264445E+01   -1.8507210416E+01   -1.8400408961E+01   -1.8294839550E+01
   -1.8190481629E+01   -1.8087315547E+01   -1.7985321414E+01   -1.7884480377E+01
   -1.7784773107E+01   -1.7686181457E+01   -1.7588686710E+01   -1.7492270947E+01
   -1.7396915727E+01   -1.7302603597E+01   -1.7209316580E+01   -1.7117037880E+01
   -1.7025750893E+01   -1.6935439276E+01   -1.6846087797E+01   -1.6757680614E+01
   -1.6670203203E+01   -1.6583640131E+01   -1.6497977516E+01   -1.6413200936E+01
   -1.6329296652E+01   -1.6246251278E+01   -1.6164051182E+01   -1.6082683911E+01
   -1.6002136171E+01   -1.5922395994E+01   -1.5843450953E+01   -1.5765289061E+01
   -1.5687898905E+01   -1.5611268455E+01   -1.5535387043E+01   -1.5460243261E+01
   -1.5385826433E+01   -1.5312126118E+01   -1.5239131485E+01   -1.5166832859E+01
   -1.5095219871E+01   -1.5024282867E+01   -1.4954012397E+01   -1.4884398565E+01
   -1.4815432630E+01   -1.4747105216E+01   -1.4679407438E+01   -1.4612330822E+01
   -1.4545866283E+01   -1.4480005858E+01   -1.4414741159E+01   -1.4350063858E+01
   -1.4285966362E+01   -1.4222440512E+01   -1.4159478769E+01   -1.4097073778E+01
   -1.4035217660E+01   -1.3973903580E+01   -1.3913124310E+01   -1.3852872560E+01
   -1.3793141817E+01   -1.3733925077E+01   -1.3675215649E+01   -1.3617007256E+01
   -1.3559293147E+01   -1.3502067168E+01   -1.3445323265E+01   -1.3389054949E+01
   -1.3333256534E+01   -1.3277922190E+01   -1.3223045691E+01   -1.3168621760E+01
   -1.3114644752E+01   -1.3061108818E+01   -1.3008008919E+01   -1.2955339649E+01
   -1.2903095494E+01   -1.2851271642E+01   -1.2799862929E+01   -1.2748864130E+01
   -1.2698270657E+01   -1.2648077587E+01   -1.2598279942E+01   -1.2548873355E+01
   -1.2499853147E+01   -1.2451214543E+01   -1.2402953398E+01   -1.2355065274E+01
   -1.2307545563E+01   -1.2260390339E+01   -1.2213595409E+01   -1.2167156294E+01
   -1.2121069286E+01   -1.2075330391E+01   -1.2029935362E+01   -1.1984880574E+01
   -1.1940162262E+01   -1.1895776422E+01   -1.1851719469E+01   -1.1807987873E+01
   -1.1764577871E+01   -1.1721485892E+01   -1.1678708635E+01   -1.1636242584E+01
   -1.1594084156E+01   -1.1552230272E+01   -1.1510677640E+01   -1.1469422725E+01
   -1.1428462584E+01   -1.1387794103E+01   -1.1347413991E+01   -1.1307319223E+01
   -1.1267506926E+01   -1.1227974056E+01   -1.1188717490E+01   -1.1149734583E+01
   -1.1111022482E+01   -1.1072578140E+01   -1.1034398942E+01   -1.0996482228E+01
   -1.0958825199E+01   -1.0921425087E+01   -1.0884279468E+01   -1.0847385751E+01
   -1.0810741152E+01   -1.0774343322E+01   -1.0738189838E+01   -1.0702278164E+01
   -1.0666605755E+01   -1.0631170426E+01   -1.0595969823E+01   -1.0561001433E+01
   -1.0526263058E+01   -1.0491752529E+01   -1.0457467587E+01   -1.0423405801E+01
   -1.0389565236E+01   -1.0355943751E+01   -1.0322539120E+01   -1.0289349192E+01
   -1.0256372061E+01   -1.0223605689E+01   -1.0191047890E+01   -1.0158696759E+01
   -1.0126550425E+01   -1.0094606941E+01   -1.0062864176E+01   -1.0031320435E+01
   -9.9999738826E+00   -9.9688226419E+00   -9.9378647118E+00   -9.9070985024E+00
   -9.8765222462E+00   -9.8461341225E+00   -9.8159322895E+00   -9.7859152091E+00
   -9.7560811961E+00   -9.7264284934E+00   -9.6969553897E+00   -9.6676604036E+00
   -9.6385419283E+00   -9.6095982762E+00   -9.5808278399E+00   -9.5522291995E+00
   -9.5238008233E+00   -9.4955410988E+00   -9.4674484967E+00   -9.4395216642E+00
   -9.4117591411E+00   -9.3841593952E+00   -9.3567209513E+00   -9.3294425290E+00
   -9.3023227361E+00   -9.2753601259E+00   -9.2485532547E+00   -9.2219009194E+00
   -9.1954017926E+00   -9.1690545177E+00   -9.1428576626E+00   -9.1168101046E+00
   -9.0909105783E+00   -9.0651578180E+00   -9.0395503968E+00   -9.0140872631E+00
   -8.9887672145E+00   -8.9635890444E+00   -8.9385514237E+00   -8.9136532650E+00
   -8.8888934619E+00   -8.8642708642E+00   -8.8397842467E+00   -8.8154324679E+00
   -8.7912145203E+00   -8.7671293070E+00   -8.7431757127E+00   -8.7193525269E+00
   -8.6956588411E+00   -8.6720936098E+00   -8.6486557872E+00   -8.6253442159E+00
   -8.6021579528E+00   -8.5790960446E+00   -8.5561574942E+00   -8.5333412614E+00
   -8.5106462966E+00   -8.4880717573E+00   -8.4656166931E+00   -8.4432801533E+00
   -8.4210610724E+00   -8.3989586163E+00   -8.3769719114E+00   -8.3551000512E+00
   -8.3333420952E+00   -8.3116970709E+00   -8.2901642240E+00   -8.2687426903E+00
   -8.2474316058E+00   -8.2262300175E+00   -8.2051371217E+00   -8.1841521477E+00
   -8.1632742718E+00   -8.1425026700E+00   -8.1218363880E+00   -8.1012747645E+00
   -8.0808170185E+00   -8.0604623646E+00   -8.0402099829E+00   -8.0200590309E+00
   -8.0000088598E+00   -7.9800587207E+00   -7.9602078646E+00   -7.9404554792E+00
   -7.9208008263E+00   -7.9012432607E+00   -7.8817820686E+00   -7.8624165359E+00
   -7.8431458652E+00   -7.8239694011E+00   -7.8048865086E+00   -7.7858965071E+00
   -7.7669987156E+00   -7.7481923586E+00   -7.7294768432E+00   -7.7108515509E+00
   -7.6923158327E+00   -7.6738690395E+00   -7.6555104234E+00   -7.6372394350E+00
   -7.6190554787E+00   -7.6009579358E+00   -7.5829461874E+00   -7.5650195188E+00
   -7.5471774063E+00   -7.5294192835E+00   -7.5117445603E+00   -7.4941526467E+00
   -7.4766428663E+00   -7.4592147047E+00   -7.4418676301E+00   -7.4246010799E+00
   -7.4074144916E+00   -7.3903072324E+00   -7.3732787811E+00   -7.3563286459E+00
   -7.3394562906E+00   -7.3226611788E+00   -7.3059427263E+00   -7.2893003905E+00
   -7.2727337244E+00   -7.2562422166E+00   -7.2398253558E+00   -7.2234826115E+00
   -7.2072134061E+00   -7.1910173413E+00   -7.1748939294E+00   -7.1588426830E+00
   -7.1428631145E+00   -7.1269546457E+00   -7.1111168838E+00   -7.0953493791E+00
   -7.0796516667E+00   -7.0640232820E+00   -7.0484637094E+00   -7.0329724906E+00
   -7.0175492367E+00   -7.0021935044E+00   -6.9869048506E+00   -6.9716828280E+00
   -6.9565269023E+00   -6.9414367466E+00   -6.9264119384E+00   -6.9114520553E+00
   -6.8965566748E+00   -6.8817253210E+00   -6.8669575882E+00   -6.8522531201E+00
   -6.8376115139E+00   -6.8230323669E+00   -6.8085152760E+00   -6.7940597469E+00
   -6.7796654820E+00   -6.7653321011E+00   -6.7510592204E+00   -6.7368464557E+00
   -6.7226933924E+00   -6.7085996179E+00   -6.6945648304E+00   -6.6805886638E+00
   -6.6666707518E+00   -6.6528107284E+00   -6.6390081707E+00   -6.6252627428E+00
   -6.6115741321E+00   -6.5979419893E+00   -6.5843659654E+00   -6.5708457113E+00
   -6.5573808030E+00   -6.5439709642E+00   -6.5306158773E+00   -6.5173152095E+00
   -6.5040686278E+00   -6.4908757995E+00   -6.4777363058E+00   -6.4646499136E+00
   -6.4516163067E+00   -6.4386351678E+00   -6.4257061794E+00   -6.4128290182E+00
   -6.4000032946E+00   -6.3872287852E+00   -6.3745051874E+00   -6.3618321985E+00
   -6.3492095161E+00   -6.3366368304E+00   -6.3241137709E+00   -6.3116401250E+00
   -6.2992156045E+00   -6.2868399209E+00   -6.2745127856E+00   -6.2622339081E+00
   -6.2500029233E+00   -6.2378196350E+00   -6.2256837681E+00   -6.2135950477E+00
   -6.2015531987E+00   -6.1895579462E+00   -6.1776089438E+00   -6.1657059904E+00
   -6.1538488323E+00   -6.1420372073E+00   -6.1302708533E+00   -6.1185495080E+00
   -6.1068728552E+00   -6.0952406702E+00   -6.0836527277E+00   -6.0721087777E+00
   -6.0606085701E+00   -6.0491518551E+00   -6.0377383510E+00   -6.0263677986E+00
   -6.0150400049E+00   -6.0037547315E+00   -5.9925117402E+00   -5.9813107925E+00
   -5.9701516460E+00   -5.9590339971E+00   -5.9479576882E+00   -5.9369224921E+00
   -5.9259281817E+00   -5.9149745297E+00   -5.9040613088E+00   -5.8931882463E+00
   -5.8823551390E+00   -5.8715617981E+00   -5.8608080070E+00   -5.8500935489E+00
   -5.8394182073E+00   -5.8287817573E+00   -5.8181839288E+00   -5.8076245777E+00
   -5.7971034976E+00   -5.7866204819E+00   -5.7761753241E+00   -5.7657678175E+00
   -5.7553977189E+00   -5.7450648301E+00   -5.7347689875E+00   -5.7245099941E+00
   -5.7142876530E+00   -5.7041017672E+00   -5.6939521398E+00   -5.6838385156E+00
   -5.6737607541E+00   -5.6637186771E+00   -5.6537120968E+00   -5.6437408256E+00
   -5.6338046755E+00   -5.6239034512E+00   -5.6140369152E+00   -5.6042049467E+00
   -5.5944073667E+00   -5.5846439963E+00   -5.5749146564E+00   -5.5652191680E+00
   -5.5555573332E+00   -5.5459289481E+00   -5.5363338880E+00   -5.5267719824E+00
   -5.5172430605E+00   -5.5077469517E+00   -5.4982834853E+00   -5.4888524663E+00
   -5.4794537120E+00   -5.4700870988E+00   -5.4607524642E+00   -5.4514496454E+00
   -5.4421784796E+00   -5.4329388043E+00   -5.4237304323E+00   -5.4145531902E+00
   -5.4054069606E+00   -5.3962915886E+00   -5.3872069188E+00   -5.3781527962E+00
   -5.3691290657E+00   -5.3601355531E+00   -5.3511720829E+00   -5.3422385486E+00
   -5.3333348025E+00   -5.3244606966E+00
  </PP_LOCAL>
 <PP_NONLOCAL>
   <PP_BETA.1
       type="real"
       size=" 602"
       columns="4"
       index="1"
       angular_momentum="0"
       cutoff_radius_index=" 262"
       cutoff_radius="    2.6100000000E+00" >
    0.0000000000E+00   -5.2234728576E-02   -1.0444653658E-01   -1.5661203548E-01
   -2.0870690579E-01   -2.6070544402E-01   -3.1258012438E-01   -3.6430118001E-01
   -4.1583620834E-01   -4.6714980494E-01   -5.1820323007E-01   -5.6895411179E-01
   -6.1935618935E-01   -6.6935909999E-01   -7.1890821224E-01   -7.6794450821E-01
   -8.1640451710E-01   -8.6422030146E-01   -9.1131949785E-01   -9.5762541244E-01
   -1.0030571719E+00   -1.0475299301E+00   -1.0909551288E+00   -1.1332408129E+00
   -1.1742919966E+00   -1.2140110820E+00   -1.2522983217E+00   -1.2890523310E+00
   -1.3241706369E+00   -1.3575502674E+00   -1.3890883742E+00   -1.4186828842E+00
   -1.4462331715E+00   -1.4716407594E+00   -1.4948100231E+00   -1.5156489056E+00
   -1.5340696420E+00   -1.5499894752E+00   -1.5633313502E+00   -1.5740246225E+00
   -1.5820057215E+00   -1.5872187890E+00   -1.5896162928E+00   -1.5891595974E+00
   -1.5858194925E+00   -1.5795766714E+00   -1.5704221551E+00   -1.5583576557E+00
   -1.5433958728E+00   -1.5255607700E+00   -1.5048877037E+00   -1.4814235125E+00
   -1.4552265808E+00   -1.4263667780E+00   -1.3949252709E+00   -1.3609944277E+00
   -1.3246774225E+00   -1.2860879653E+00   -1.2453498112E+00   -1.2025962946E+00
   -1.1579697449E+00   -1.1116208251E+00   -1.0637078778E+00   -1.0143961295E+00
   -9.6385685256E-01   -9.1226660615E-01   -8.5980624431E-01   -8.0665994037E-01
   -7.5301432621E-01   -6.9905754757E-01   -6.4497805179E-01   -5.9096367602E-01
   -5.3720068834E-01   -4.8387274239E-01   -4.3115989399E-01   -3.7923769917E-01
   -3.2827594649E-01   -2.7843808731E-01   -2.2988025199E-01   -1.8275042493E-01
   -1.3718767321E-01   -9.3321434648E-02   -5.1270870243E-02   -1.1144285602E-02
    2.6961374565E-02    6.2960955422E-02    9.6781441531E-02    1.2836222462E-01
    1.5765528783E-01    1.8462530546E-01    2.0924965750E-01    2.3151835942E-01
    2.5143390788E-01    2.6901104398E-01    2.8427643636E-01    2.9726822816E-01
    3.0803567658E-01    3.1663871465E-01    3.2314708986E-01    3.2763980123E-01
    3.3020437423E-01    3.3093608734E-01    3.2993718878E-01    3.2731609194E-01
    3.2318628256E-01    3.1766547855E-01    3.1087469736E-01    3.0293748237E-01
    2.9397891785E-01    2.8412383394E-01    2.7349670562E-01    2.6222048642E-01
    2.5041680166E-01    2.3820171526E-01    2.2568763238E-01    2.1298196333E-01
    2.0018738152E-01    1.8739640078E-01    1.7469507262E-01    1.6216243607E-01
    1.4986650415E-01    1.3786635038E-01    1.2621547278E-01    1.1496143297E-01
    1.0414305201E-01    9.3794771828E-02    8.3946134380E-02    7.4617806402E-02
    6.5826930854E-02    5.7586132384E-02    4.9900394690E-02    4.2772063772E-02