<UPF version="2.0.1">
  <PP_INFO>

 This pseudopotential file has been produced using the code
 ONCVPSP  (Optimized Norm-Conservinng Vanderbilt PSeudopotential)
 scalar-relativistic version 2.1.1, 03/26/2014 by D. R. Hamann
 The code is available through a link at URL www.mat-simresearch.com.
 Documentation with the package provides a full discription of the
 input data below.


 While it is not required under the terms of the GNU GPL, it is
 suggested that you cite D. R. Hamann, Phys. Rev. B 88, 085117 (2013)
 in any publication using these pseudopotentials.

    <PP_INPUTFILE>
# ATOM AND REFERENCE CONFIGURATION
# atsym  z    nc    nv    iexc   psfile
  Pt 78.00    10     4     4      upf
#
#   n    l    f        energy (Ha)
    1    0    2.00
    2    0    2.00
    2    1    6.00
    3    0    2.00
    3    1    6.00
    3    2   10.00
    4    0    2.00
    4    1    6.00
    4    2   10.00
    4    3   14.00
    5    0    2.00
    5    1    6.00
    6    0    2.00
    5    2    8.00
#
# PSEUDOPOTENTIAL AND OPTIMIZATION
# lmax
    3
#
#   l,   rc,     ep,   ncon, nbas, qcut
    0   2.32041  -3.84261    5    8   7.09026
    1   2.32041  -2.15331    5    8   6.90276
    2   2.21230  -0.29566    5    8   6.72730
    3   3.01673   0.19775    5    8   5.51061
#
# LOCAL POTENTIAL
# lloc, lpopt,  rc(5),   dvloc0
    4    5   1.42287      0.00000
#
# VANDERBILT-KLEINMAN-BYLANDER PROJECTORs
# l, nproj, debl
    0    2   3.60366
    1    2   2.11067
    2    2   1.75768
    3    2   1.52628
#
# MODEL CORE CHARGE
# icmod, fcfact
    0   0.00000
#
# LOG DERIVATIVE ANALYSIS
# epsh1, epsh2, depsh
   -5.00    3.00    0.02
#
# OUTPUT GRID
# rlmax, drl
    6.00    0.01
#
# TEST CONFIGURATIONS
# ncnf
    0
# nvcnf
#   n    l    f
    </PP_INPUTFILE>
  </PP_INFO>
  <!--                               -->
  <!-- END OF HUMAN READABLE SECTION -->
  <!--                               -->
    <PP_HEADER
       generated="Generated using ONCVPSP code by D. R. Hamann"
       author="anonymous"
       date="241015"
       comment=""
       element="Pt"
       pseudo_type="NC"
       relativistic="scalar"
       is_ultrasoft="F"
       is_paw="F"
       is_coulomb="F"
       has_so="F"
       has_wfc="F"
       has_gipaw="T"
       core_correction="F"
       functional="PBE"
       z_valence="   18.00"
       total_psenergy="  -1.21050617965E+02"
       rho_cutoff="   6.01000000000E+00"
       l_max="3"
       l_local="-1"
       mesh_size="   602"
       number_of_wfc="0"
       number_of_proj="8"/>
 <PP_MESH>
   <PP_R type="real"  size=" 602" columns="8">
    0.0000    0.0100    0.0200    0.0300    0.0400    0.0500    0.0600    0.0700
    0.0800    0.0900    0.1000    0.1100    0.1200    0.1300    0.1400    0.1500
    0.1600    0.1700    0.1800    0.1900    0.2000    0.2100    0.2200    0.2300
    0.2400    0.2500    0.2600    0.2700    0.2800    0.2900    0.3000    0.3100
    0.3200    0.3300    0.3400    0.3500    0.3600    0.3700    0.3800    0.3900
    0.4000    0.4100    0.4200    0.4300    0.4400    0.4500    0.4600    0.4700
    0.4800    0.4900    0.5000    0.5100    0.5200    0.5300    0.5400    0.5500
    0.5600    0.5700    0.5800    0.5900    0.6000    0.6100    0.6200    0.6300
    0.6400    0.6500    0.6600    0.6700    0.6800    0.6900    0.7000    0.7100
    0.7200    0.7300    0.7400    0.7500    0.7600    0.7700    0.7800    0.7900
    0.8000    0.8100    0.8200    0.8300    0.8400    0.8500    0.8600    0.8700
    0.8800    0.8900    0.9000    0.9100    0.9200    0.9300    0.9400    0.9500
    0.9600    0.9700    0.9800    0.9900    1.0000    1.0100    1.0200    1.0300
    1.0400    1.0500    1.0600    1.0700    1.0800    1.0900    1.1000    1.1100
    1.1200    1.1300    1.1400    1.1500    1.1600    1.1700    1.1800    1.1900
    1.2000    1.2100    1.2200    1.2300    1.2400    1.2500    1.2600    1.2700
    1.2800    1.2900    1.3000    1.3100    1.3200    1.3300    1.3400    1.3500
    1.3600    1.3700    1.3800    1.3900    1.4000    1.4100    1.4200    1.4300
    1.4400    1.4500    1.4600    1.4700    1.4800    1.4900    1.5000    1.5100
    1.5200    1.5300    1.5400    1.5500    1.5600    1.5700    1.5800    1.5900
    1.6000    1.6100    1.6200    1.6300    1.6400    1.6500    1.6600    1.6700
    1.6800    1.6900    1.7000    1.7100    1.7200    1.7300    1.7400    1.7500
    1.7600    1.7700    1.7800    1.7900    1.8000    1.8100    1.8200    1.8300
    1.8400    1.8500    1.8600    1.8700    1.8800    1.8900    1.9000    1.9100
    1.9200    1.9300    1.9400    1.9500    1.9600    1.9700    1.9800    1.9900
    2.0000    2.0100    2.0200    2.0300    2.0400    2.0500    2.0600    2.0700
    2.0800    2.0900    2.1000    2.1100    2.1200    2.1300    2.1400    2.1500
    2.1600    2.1700    2.1800    2.1900    2.2000    2.2100    2.2200    2.2300
    2.2400    2.2500    2.2600    2.2700    2.2800    2.2900    2.3000    2.3100
    2.3200    2.3300    2.3400    2.3500    2.3600    2.3700    2.3800    2.3900
    2.4000    2.4100    2.4200    2.4300    2.4400    2.4500    2.4600    2.4700
    2.4800    2.4900    2.5000    2.5100    2.5200    2.5300    2.5400    2.5500
    2.5600    2.5700    2.5800    2.5900    2.6000    2.6100    2.6200    2.6300
    2.6400    2.6500    2.6600    2.6700    2.6800    2.6900    2.7000    2.7100
    2.7200    2.7300    2.7400    2.7500    2.7600    2.7700    2.7800    2.7900
    2.8000    2.8100    2.8200    2.8300    2.8400    2.8500    2.8600    2.8700
    2.8800    2.8900    2.9000    2.9100    2.9200    2.9300    2.9400    2.9500
    2.9600    2.9700    2.9800    2.9900    3.0000    3.0100    3.0200    3.0300
    3.0400    3.0500    3.0600    3.0700    3.0800    3.0900    3.1000    3.1100
    3.1200    3.1300    3.1400    3.1500    3.1600    3.1700    3.1800    3.1900
    3.2000    3.2100    3.2200    3.2300    3.2400    3.2500    3.2600    3.2700
    3.2800    3.2900    3.3000    3.3100    3.3200    3.3300    3.3400    3.3500
    3.3600    3.3700    3.3800    3.3900    3.4000    3.4100    3.4200    3.4300
    3.4400    3.4500    3.4600    3.4700    3.4800    3.4900    3.5000    3.5100
    3.5200    3.5300    3.5400    3.5500    3.5600    3.5700    3.5800    3.5900
    3.6000    3.6100    3.6200    3.6300    3.6400    3.6500    3.6600    3.6700
    3.6800    3.6900    3.7000    3.7100    3.7200    3.7300    3.7400    3.7500
    3.7600    3.7700    3.7800    3.7900    3.8000    3.8100    3.8200    3.8300
    3.8400    3.8500    3.8600    3.8700    3.8800    3.8900    3.9000    3.9100
    3.9200    3.9300    3.9400    3.9500    3.9600    3.9700    3.9800    3.9900
    4.0000    4.0100    4.0200    4.0300    4.0400    4.0500    4.0600    4.0700
    4.0800    4.0900    4.1000    4.1100    4.1200    4.1300    4.1400    4.1500
    4.1600    4.1700    4.1800    4.1900    4.2000    4.2100    4.2200    4.2300
    4.2400    4.2500    4.2600    4.2700    4.2800    4.2900    4.3000    4.3100
    4.3200    4.3300    4.3400    4.3500    4.3600    4.3700    4.3800    4.3900
    4.4000    4.4100    4.4200    4.4300    4.4400    4.4500    4.4600    4.4700
    4.4800    4.4900    4.5000    4.5100    4.5200    4.5300    4.5400    4.5500
    4.5600    4.5700    4.5800    4.5900    4.6000    4.6100    4.6200    4.6300
    4.6400    4.6500    4.6600    4.6700    4.6800    4.6900    4.7000    4.7100
    4.7200    4.7300    4.7400    4.7500    4.7600    4.7700    4.7800    4.7900
    4.8000    4.8100    4.8200    4.8300    4.8400    4.8500    4.8600    4.8700
    4.8800    4.8900    4.9000    4.9100    4.9200    4.9300    4.9400    4.9500
    4.9600    4.9700    4.9800    4.9900    5.0000    5.0100    5.0200    5.0300
    5.0400    5.0500    5.0600    5.0700    5.0800    5.0900    5.1000    5.1100
    5.1200    5.1300    5.1400    5.1500    5.1600    5.1700    5.1800    5.1900
    5.2000    5.2100    5.2200    5.2300    5.2400    5.2500    5.2600    5.2700
    5.2800    5.2900    5.3000    5.3100    5.3200    5.3300    5.3400    5.3500
    5.3600    5.3700    5.3800    5.3900    5.4000    5.4100    5.4200    5.4300
    5.4400    5.4500    5.4600    5.4700    5.4800    5.4900    5.5000    5.5100
    5.5200    5.5300    5.5400    5.5500    5.5600    5.5700    5.5800    5.5900
    5.6000    5.6100    5.6200    5.6300    5.6400    5.6500    5.6600    5.6700
    5.6800    5.6900    5.7000    5.7100    5.7200    5.7300    5.7400    5.7500
    5.7600    5.7700    5.7800    5.7900    5.8000    5.8100    5.8200    5.8300
    5.8400    5.8500    5.8600    5.8700    5.8800    5.8900    5.9000    5.9100
    5.9200    5.9300    5.9400    5.9500    5.9600    5.9700    5.9800    5.9900
    6.0000    6.0100
   </PP_R>
   <PP_RAB type="real"  size=" 602" columns="8">
    0.0100    0.0100    0.0100    0.0100    0.0100    0.0100    0.0100    0.0100
    0.0100    0.0100    0.0100    0.0100    0.0100    0.0100    0.0100    0.0100
    0.0100    0.0100    0.0100    0.0100    0.0100    0.0100    0.0100    0.0100
    0.0100    0.0100    0.0100    0.0100    0.0100    0.0100    0.0100    0.0100
    0.0100    0.0100    0.0100    0.0100    0.0100    0.0100    0.0100    0.0100
    0.0100    0.0100    0.0100    0.0100    0.0100    0.0100    0.0100    0.0100
    0.0100    0.0100    0.0100    0.0100    0.0100    0.0100    0.0100    0.0100
    0.0100    0.0100    0.0100    0.0100    0.0100    0.0100    0.0100    0.0100
    0.0100    0.0100    0.0100    0.0100    0.0100    0.0100    0.0100    0.0100
    0.0100    0.0100    0.0100    0.0100    0.0100    0.0100    0.0100    0.0100
    0.0100    0.0100    0.0100    0.0100    0.0100    0.0100    0.0100    0.0100
    0.0100    0.0100    0.0100    0.0100    0.0100    0.0100    0.0100    0.0100
    0.0100    0.0100    0.0100    0.0100    0.0100    0.0100    0.0100    0.0100
    0.0100    0.0100    0.0100    0.0100    0.0100    0.0100    0.0100    0.0100
    0.0100    0.0100    0.0100    0.0100    0.0100    0.0100    0.0100    0.0100
    0.0100    0.0100    0.0100    0.0100    0.0100    0.0100    0.0100    0.0100
    0.0100    0.0100    0.0100    0.0100    0.0100    0.0100    0.0100    0.0100
    0.0100    0.0100    0.0100    0.0100    0.0100    0.0100    0.0100    0.0100
    0.0100    0.0100    0.0100    0.0100    0.0100    0.0100    0.0100    0.0100
    0.0100    0.0100    0.0100    0.0100    0.0100    0.0100    0.0100    0.0100
    0.0100    0.0100    0.0100    0.0100    0.0100    0.0100    0.0100    0.0100
    0.0100    0.0100    0.0100    0.0100    0.0100    0.0100    0.0100    0.0100
    0.0100    0.0100    0.0100    0.0100    0.0100    0.0100    0.0100    0.0100
    0.0100    0.0100    0.0100    0.0100    0.0100    0.0100    0.0100    0.0100
    0.0100    0.0100    0.0100    0.0100    0.0100    0.0100    0.0100    0.0100
    0.0100    0.0100    0.0100    0.0100    0.0100    0.0100    0.0100    0.0100
    0.0100    0.0100    0.0100    0.0100    0.0100    0.0100    0.0100    0.0100
    0.0100    0.0100    0.0100    0.0100    0.0100    0.0100    0.0100    0.0100
    0.0100    0.0100    0.0100    0.0100    0.0100    0.0100    0.0100    0.0100
    0.0100    0.0100    0.0100    0.0100    0.0100    0.0100    0.0100    0.0100
    0.0100    0.0100    0.0100    0.0100    0.0100    0.0100    0.0100    0.0100
    0.0100    0.0100    0.0100    0.0100    0.0100    0.0100    0.0100    0.0100
    0.0100    0.0100    0.0100    0.0100    0.0100    0.0100    0.0100    0.0100
    0.0100    0.0100    0.0100    0.0100    0.0100    0.0100    0.0100    0.0100
    0.0100    0.0100    0.0100    0.0100    0.0100    0.0100    0.0100    0.0100
    0.0100    0.0100    0.0100    0.0100    0.0100    0.0100    0.0100    0.0100
    0.0100    0.0100    0.0100    0.0100    0.0100    0.0100    0.0100    0.0100
    0.0100    0.0100    0.0100    0.0100    0.0100    0.0100    0.0100    0.0100
    0.0100    0.0100    0.0100    0.0100    0.0100    0.0100    0.0100    0.0100
    0.0100    0.0100    0.0100    0.0100    0.0100    0.0100    0.0100    0.0100
    0.0100    0.0100    0.0100    0.0100    0.0100    0.0100    0.0100    0.0100
    0.0100    0.0100    0.0100    0.0100    0.0100    0.0100    0.0100    0.0100
    0.0100    0.0100    0.0100    0.0100    0.0100    0.0100    0.0100    0.0100
    0.0100    0.0100    0.0100    0.0100    0.0100    0.0100    0.0100    0.0100
    0.0100    0.0100    0.0100    0.0100    0.0100    0.0100    0.0100    0.0100
    0.0100    0.0100    0.0100    0.0100    0.0100    0.0100    0.0100    0.0100
    0.0100    0.0100    0.0100    0.0100    0.0100    0.0100    0.0100    0.0100
    0.0100    0.0100    0.0100    0.0100    0.0100    0.0100    0.0100    0.0100
    0.0100    0.0100    0.0100    0.0100    0.0100    0.0100    0.0100    0.0100
    0.0100    0.0100    0.0100    0.0100    0.0100    0.0100    0.0100    0.0100
    0.0100    0.0100    0.0100    0.0100    0.0100    0.0100    0.0100    0.0100
    0.0100    0.0100    0.0100    0.0100    0.0100    0.0100    0.0100    0.0100
    0.0100    0.0100    0.0100    0.0100    0.0100    0.0100    0.0100    0.0100
    0.0100    0.0100    0.0100    0.0100    0.0100    0.0100    0.0100    0.0100
    0.0100    0.0100    0.0100    0.0100    0.0100    0.0100    0.0100    0.0100
    0.0100    0.0100    0.0100    0.0100    0.0100    0.0100    0.0100    0.0100
    0.0100    0.0100    0.0100    0.0100    0.0100    0.0100    0.0100    0.0100
    0.0100    0.0100    0.0100    0.0100    0.0100    0.0100    0.0100    0.0100
    0.0100    0.0100    0.0100    0.0100    0.0100    0.0100    0.0100    0.0100
    0.0100    0.0100    0.0100    0.0100    0.0100    0.0100    0.0100    0.0100
    0.0100    0.0100    0.0100    0.0100    0.0100    0.0100    0.0100    0.0100
    0.0100    0.0100    0.0100    0.0100    0.0100    0.0100    0.0100    0.0100
    0.0100    0.0100    0.0100    0.0100    0.0100    0.0100    0.0100    0.0100
    0.0100    0.0100    0.0100    0.0100    0.0100    0.0100    0.0100    0.0100
    0.0100    0.0100    0.0100    0.0100    0.0100    0.0100    0.0100    0.0100
    0.0100    0.0100    0.0100    0.0100    0.0100    0.0100    0.0100    0.0100
    0.0100    0.0100    0.0100    0.0100    0.0100    0.0100    0.0100    0.0100
    0.0100    0.0100    0.0100    0.0100    0.0100    0.0100    0.0100    0.0100
    0.0100    0.0100    0.0100    0.0100    0.0100    0.0100    0.0100    0.0100
    0.0100    0.0100    0.0100    0.0100    0.0100    0.0100    0.0100    0.0100
    0.0100    0.0100    0.0100    0.0100    0.0100    0.0100    0.0100    0.0100
    0.0100    0.0100    0.0100    0.0100    0.0100    0.0100    0.0100    0.0100
    0.0100    0.0100    0.0100    0.0100    0.0100    0.0100    0.0100    0.0100
    0.0100    0.0100    0.0100    0.0100    0.0100    0.0100    0.0100    0.0100
    0.0100    0.0100    0.0100    0.0100    0.0100    0.0100    0.0100    0.0100
    0.0100    0.0100
   </PP_RAB>
 </PP_MESH>
  <PP_LOCAL type="real"  size=" 602" columns="4">
   -5.6409728668E+01   -5.6407271320E+01   -5.6399973886E+01   -5.6387750860E+01
   -5.6370516739E+01   -5.6348161993E+01   -5.6320561729E+01   -5.6287584955E+01
   -5.6249103521E+01   -5.6204999961E+01   -5.6155173708E+01   -5.6099545411E+01
   -5.6038059360E+01   -5.5970684165E+01   -5.5897412024E+01   -5.5818256912E+01
   -5.5733252067E+01   -5.5642447096E+01   -5.5545904969E+01   -5.5443699105E+01
   -5.5335910689E+01   -5.5222626293E+01   -5.5103935857E+01   -5.4979931017E+01
   -5.4850703773E+01   -5.4716345458E+01   -5.4576945973E+01   -5.4432593251E+01
   -5.4283372901E+01   -5.4129368003E+01   -5.3970659025E+01   -5.3807323824E+01
   -5.3639437724E+01   -5.3467073637E+01   -5.3290302219E+01   -5.3109192066E+01
   -5.2923809898E+01   -5.2734220783E+01   -5.2540488343E+01   -5.2342674968E+01
   -5.2140842032E+01   -5.1935050105E+01   -5.1725359149E+01   -5.1511828728E+01
   -5.1294518194E+01   -5.1073486880E+01   -5.0848794280E+01   -5.0620500225E+01
   -5.0388665050E+01   -5.0153349760E+01   -4.9914616193E+01   -4.9672527162E+01
   -4.9427146590E+01   -4.9178539684E+01   -4.8926773019E+01   -4.8671914694E+01
   -4.8414034440E+01   -4.8153203709E+01   -4.7889495808E+01   -4.7622985949E+01
   -4.7353751349E+01   -4.7081871322E+01   -4.6807427243E+01   -4.6530502744E+01
   -4.6251183623E+01   -4.5969557866E+01   -4.5685715774E+01   -4.5399749839E+01
   -4.5111754744E+01   -4.4821827363E+01   -4.4530066729E+01   -4.4236573927E+01
   -4.3941452035E+01   -4.3644806039E+01   -4.3346742739E+01   -4.3047370670E+01
   -4.2746799929E+01   -4.2445142069E+01   -4.2142509956E+01   -4.1839017626E+01
   -4.1534780122E+01   -4.1229913345E+01   -4.0924533880E+01   -4.0618758831E+01
   -4.0312705649E+01   -4.0006491963E+01   -3.9700235402E+01   -3.9394053426E+01
   -3.9088063152E+01   -3.8782381192E+01   -3.8477123478E+01   -3.8172405107E+01
   -3.7868340180E+01   -3.7565041646E+01   -3.7262621158E+01   -3.6961188925E+01
   -3.6660853572E+01   -3.6361722083E+01   -3.6063899480E+01   -3.5767488848E+01
   -3.5472591191E+01   -3.5179305306E+01   -3.4887727684E+01   -3.4597952488E+01
   -3.4310071307E+01   -3.4024172973E+01   -3.3740343694E+01   -3.3458666884E+01
   -3.3179223243E+01   -3.2902090356E+01   -3.2627342548E+01   -3.2355051161E+01
   -3.2085284471E+01   -3.1818107612E+01   -3.1553581724E+01   -3.1291764845E+01
   -3.1032711841E+01   -3.0776473840E+01   -3.0523097807E+01   -3.0272627389E+01
   -3.0025103313E+01   -2.9780560946E+01   -2.9539032361E+01   -2.9300546531E+01
   -2.9065127399E+01   -2.8832794699E+01   -2.8603565232E+01   -2.8377450751E+01
   -2.8154458226E+01   -2.7934591973E+01   -2.7717850647E+01   -2.7504228111E+01
   -2.7293715953E+01   -2.7086298672E+01   -2.6881956925E+01   -2.6680668885E+01
   -2.6482404143E+01   -2.6287130555E+01   -2.6094810460E+01   -2.5905399372E+01
   -2.5718851955E+01   -2.5535112865E+01   -2.5354125063E+01   -2.5175824783E+01
   -2.5000147269E+01   -2.4827026091E+01   -2.4656399628E+01   -2.4488206127E+01
   -2.4322387084E+01   -2.4158885589E+01   -2.3997645904E+01   -2.3838615650E+01
   -2.3681741823E+01   -2.3526975960E+01   -2.3374268541E+01   -2.3223573887E+01
   -2.3074846203E+01   -2.2928042305E+01   -2.2783119920E+01   -2.2640038264E+01
   -2.2498758310E+01   -2.2359241599E+01   -2.2221452072E+01   -2.2085353526E+01
   -2.1950912593E+01   -2.1818095261E+01   -2.1686870590E+01   -2.1557206681E+01
   -2.1429074775E+01   -2.1302445010E+01   -2.1177290565E+01   -2.1053583538E+01
   -2.0931298820E+01   -2.0810410376E+01   -2.0690894600E+01   -2.0572727232E+01
   -2.0455885966E+01   -2.0340348220E+01   -2.0226092800E+01   -2.0113098697E+01
   -2.0001345663E+01   -1.9890814142E+01   -1.9781484694E+01   -1.9673339078E+01
   -1.9566358553E+01   -1.9460526047E+01   -1.9355823444E+01   -1.9252234546E+01
   -1.9149742184E+01   -1.9048330512E+01   -1.8947983376E+01   -1.8848685182E+01
   -1.8750420686E+01   -1.8653174507E+01   -1.8556932188E+01   -1.8461678587E+01
   -1.8367399766E+01   -1.8274081208E+01   -1.8181709043E+01   -1.8090269486E+01
   -1.7999748701E+01   -1.7910133578E+01   -1.7821410418E+01   -1.7733566516E+01
   -1.7646588759E+01   -1.7560464411E+01   -1.7475181149E+01   -1.7390726138E+01
   -1.7307087703E+01   -1.7224253520E+01   -1.7142211893E+01   -1.7060951431E+01
   -1.6980460216E+01   -1.6900727659E+01   -1.6821742417E+01   -1.6743493810E+01
   -1.6665971621E+01   -1.6589164720E+01   -1.6513063951E+01   -1.6437659213E+01
   -1.6362940855E+01   -1.6288900348E+01   -1.6215529034E+01   -1.6142817309E+01
   -1.6070755444E+01   -1.5999333232E+01   -1.5928543293E+01   -1.5858376979E+01
   -1.5788826041E+01   -1.5719882956E+01   -1.5651539711E+01   -1.5583788644E+01
   -1.5516622131E+01   -1.5450032075E+01   -1.5384011528E+01   -1.5318553111E+01
   -1.5253649291E+01   -1.5189293483E+01   -1.5125478588E+01   -1.5062197661E+01
   -1.4999444340E+01   -1.4937211794E+01   -1.4875493557E+01   -1.4814283517E+01
   -1.4753575111E+01   -1.4693362296E+01   -1.4633639208E+01   -1.4574399559E+01
   -1.4515637671E+01   -1.4457347928E+01   -1.4399524317E+01   -1.4342161471E+01
   -1.4285254024E+01   -1.4228796234E+01   -1.4172783000E+01   -1.4117209204E+01
   -1.4062069375E+01   -1.4007358630E+01   -1.3953072103E+01   -1.3899204592E+01
   -1.3845751390E+01   -1.3792707883E+01   -1.3740069138E+01   -1.3687830583E+01
   -1.3635987856E+01   -1.3584536295E+01   -1.3533471425E+01   -1.3482789135E+01
   -1.3432485037E+01   -1.3382554717E+01   -1.3332994313E+01   -1.3283799710E+01
   -1.3234966530E+01   -1.3186491152E+01   -1.3138369666E+01   -1.3090597917E+01
   -1.3043172308E+01   -1.2996089177E+01   -1.2949344644E+01   -1.2902935058E+01
   -1.2856857022E+01   -1.2811106930E+01   -1.2765681060E+01   -1.2720576265E+01
   -1.2675789156E+01   -1.2631316116E+01   -1.2587154044E+01   -1.2543299772E+01
   -1.2499749955E+01   -1.2456501355E+01   -1.2413551067E+01   -1.2370896010E+01
   -1.2328532853E+01   -1.2286458879E+01   -1.2244671170E+01   -1.2203166666E+01
   -1.2161942459E+01   -1.2120995900E+01   -1.2080324190E+01   -1.2039924296E+01
   -1.1999793741E+01   -1.1959929880E+01   -1.1920329959E+01   -1.1880991258E+01
   -1.1841911408E+01   -1.1803087862E+01   -1.1764517897E+01   -1.1726199152E+01
   -1.1688129276E+01   -1.1650305833E+01   -1.1612726182E+01   -1.1575388237E+01
   -1.1538289685E+01   -1.1501428129E+01   -1.1464801212E+01   -1.1428406890E+01
   -1.1392242957E+01   -1.1356307067E+01   -1.1320597112E+01   -1.1285111090E+01
   -1.1249846898E+01   -1.1214802252E+01   -1.1179975254E+01   -1.1145363950E+01
   -1.1110966336E+01   -1.1076780198E+01   -1.1042803812E+01   -1.1009035280E+01
   -1.0975472678E+01   -1.0942113909E+01   -1.0908957351E+01   -1.0876001182E+01
   -1.0843243552E+01   -1.0810682490E+01   -1.0778316442E+01   -1.0746143671E+01
   -1.0714162410E+01   -1.0682370783E+01   -1.0650767310E+01   -1.0619350334E+01
   -1.0588118177E+01   -1.0557069031E+01   -1.0526201497E+01   -1.0495513995E+01
   -1.0465004939E+01   -1.0434672568E+01   -1.0404515564E+01   -1.0374532421E+01
   -1.0344721634E+01   -1.0315081521E+01   -1.0285610794E+01   -1.0256308036E+01
   -1.0227171811E+01   -1.0198200545E+01   -1.0169392933E+01   -1.0140747660E+01
   -1.0112263358E+01   -1.0083938563E+01   -1.0055771935E+01   -1.0027762265E+01
   -9.9999082469E+00   -9.9722085349E+00   -9.9446617352E+00   -9.9172667447E+00
   -9.8900223190E+00   -9.8629272136E+00   -9.8359800273E+00   -9.8091797025E+00
   -9.7825250728E+00   -9.7560149518E+00   -9.7296480630E+00   -9.7034232500E+00
   -9.6773394682E+00   -9.6513955865E+00   -9.6255904605E+00   -9.5999228205E+00
   -9.5743917422E+00   -9.5489961471E+00   -9.5237349565E+00   -9.4986069933E+00
   -9.4736112362E+00   -9.4487467265E+00   -9.4240124361E+00   -9.3994073288E+00
   -9.3749302337E+00   -9.3505803218E+00   -9.3263566127E+00   -9.3022581260E+00
   -9.2782838085E+00   -9.2544326841E+00   -9.2307039061E+00   -9.2070965395E+00
   -9.1836096497E+00   -9.1602421783E+00   -9.1369933163E+00   -9.1138622041E+00
   -9.0908479506E+00   -9.0679496500E+00   -9.0451662934E+00   -9.0224971663E+00
   -8.9999414190E+00   -8.9774982017E+00   -8.9551666148E+00   -8.9329457714E+00
   -8.9108349608E+00   -8.8888333727E+00   -8.8669401970E+00   -8.8451545488E+00
   -8.8234756396E+00   -8.8019027687E+00   -8.7804351635E+00   -8.7590720518E+00
   -8.7378125710E+00   -8.7166560082E+00   -8.6956016795E+00   -8.6746488487E+00
   -8.6537967791E+00   -8.6330446382E+00   -8.6123917662E+00   -8.5918375039E+00
   -8.5713811490E+00   -8.5510219995E+00   -8.5307592585E+00   -8.5105922998E+00
   -8.4905204952E+00   -8.4705431751E+00   -8.4506596702E+00   -8.4308692256E+00
   -8.4111712295E+00   -8.3915650910E+00   -8.3720501719E+00   -8.3526258340E+00
   -8.3332913704E+00   -8.3140461655E+00   -8.2948896719E+00   -8.2758212814E+00
   -8.2568403853E+00   -8.2379463304E+00   -8.2191384806E+00   -8.2004163375E+00
   -8.1817793211E+00   -8.1632268513E+00   -8.1447583339E+00   -8.1263730974E+00
   -8.1080706965E+00   -8.0898505781E+00   -8.0717121892E+00   -8.0536549766E+00
   -8.0356782905E+00   -8.0177816715E+00   -7.9999646157E+00   -7.9822265957E+00
   -7.9645670841E+00   -7.9469855012E+00   -7.9294813168E+00   -7.9120540938E+00
   -7.8947033295E+00   -7.8774285211E+00   -7.8602291646E+00   -7.8431046471E+00
   -7.8260546005E+00   -7.8090785454E+00   -7.7921760026E+00   -7.7753464927E+00
   -7.7585894781E+00   -7.7419044942E+00   -7.7252911386E+00   -7.7087489544E+00
   -7.6922774844E+00   -7.6758762718E+00   -7.6595447565E+00   -7.6432825992E+00
   -7.6270893695E+00   -7.6109646315E+00   -7.5949079497E+00   -7.5789188531E+00
   -7.5629968754E+00   -7.5471416731E+00   -7.5313528310E+00   -7.5156299335E+00
   -7.4999725654E+00   -7.4843802452E+00   -7.4688525963E+00   -7.4533892616E+00
   -7.4379898450E+00   -7.4226539507E+00   -7.4073811824E+00   -7.3921710566E+00
   -7.3770232665E+00   -7.3619374483E+00   -7.3469132245E+00   -7.3319502176E+00
   -7.3170480467E+00   -7.3022062427E+00   -7.2874245405E+00   -7.2727025801E+00
   -7.2580400015E+00   -7.2434364448E+00   -7.2288915374E+00   -7.2144048495E+00
   -7.1999761220E+00   -7.1856050117E+00   -7.1712911753E+00   -7.1570342696E+00
   -7.1428339368E+00   -7.1286897705E+00   -7.1146015233E+00   -7.1005688680E+00
   -7.0865914775E+00   -7.0726690243E+00   -7.0588011714E+00   -7.0449875207E+00
   -7.0312278423E+00   -7.0175218242E+00   -7.0038691545E+00   -6.9902695210E+00
   -6.9767226120E+00   -6.9632280267E+00   -6.9497855548E+00   -6.9363948999E+00
   -6.9230557645E+00   -6.9097678511E+00   -6.8965308624E+00   -6.8833444306E+00
   -6.8702083210E+00   -6.8571222681E+00   -6.8440859886E+00   -6.8310991987E+00
   -6.8181616149E+00   -6.8052729075E+00   -6.7924328048E+00   -6.7796410773E+00
   -6.7668974546E+00   -6.7542016663E+00   -6.7415534421E+00   -6.7289524956E+00
   -6.7163985062E+00   -6.7038912845E+00   -6.6914305725E+00   -6.6790161126E+00
   -6.6666476469E+00   -6.6543249177E+00   -6.6420476038E+00   -6.6298155005E+00
   -6.6176283814E+00   -6.6054860005E+00   -6.5933881122E+00   -6.5813344707E+00
   -6.5693248078E+00   -6.5573588447E+00   -6.5454364055E+00   -6.5335572556E+00
   -6.5217211609E+00   -6.5099278870E+00   -6.4981771996E+00   -6.4864688090E+00
   -6.4748025201E+00   -6.4631781330E+00   -6.4515954244E+00   -6.4400541707E+00
   -6.4285541487E+00   -6.4170951309E+00   -6.4056768261E+00   -6.3942990933E+00
   -6.3829617197E+00   -6.3716644921E+00   -6.3604071976E+00   -6.3491896232E+00
   -6.3380115316E+00   -6.3268726860E+00   -6.3157729344E+00   -6.3047120736E+00
   -6.2936899006E+00   -6.2827062123E+00   -6.2717608057E+00   -6.2608534401E+00
   -6.2499839184E+00   -6.2391520830E+00   -6.2283577405E+00   -6.2176006971E+00
   -6.2068807594E+00   -6.1961977335E+00   -6.1855513820E+00   -6.1749415326E+00
   -6.1643680287E+00   -6.1538306856E+00   -6.1433293188E+00   -6.1328637436E+00
   -6.1224337754E+00   -6.1120391851E+00   -6.1016798123E+00   -6.0913555066E+00
   -6.0810660921E+00   -6.0708113927E+00   -6.0605912324E+00   -6.0504054352E+00
   -6.0402537856E+00   -6.0301361227E+00   -6.0200523076E+00   -6.0100021725E+00
   -5.9999855497E+00   -5.9900022714E+00
  </PP_LOCAL>
 <PP_NONLOCAL>
   <PP_BETA.1
       type="real"
       size=" 602"
       columns="4"
       index="1"
       angular_momentum="0"
       cutoff_radius_index=" 306"
       cutoff_radius="    3.0500000000E+00" >
    0.0000000000E+00   -5.8239987931E-02   -1.1638967519E-01   -1.7435890368E-01
   -2.3205780039E-01   -2.8939691981E-01   -3.4628738605E-01   -4.0264103484E-01
   -4.5837055504E-01   -5.1338962980E-01   -5.6761307717E-01   -6.2095699009E-01
   -6.7333887562E-01   -7.2467779332E-01   -7.7489449267E-01   -8.2391154924E-01
   -8.7165349966E-01   -9.1804697504E-01   -9.6302083267E-01   -1.0065062860E+00
   -1.0484370323E+00   -1.0887493782E+00   -1.1273823623E+00   -1.1642778754E+00
   -1.1993807773E+00   -1.2326390101E+00   -1.2640037079E+00   -1.2934293027E+00
   -1.3208736257E+00   -1.3462980034E+00   -1.3696673499E+00   -1.3909502530E+00
   -1.4101190542E+00   -1.4271499234E+00   -1.4420229281E+00   -1.4547220917E+00
   -1.4652354518E+00   -1.4735551033E+00   -1.4796772386E+00   -1.4836021798E+00
   -1.4853343994E+00   -1.4848825344E+00   -1.4822593916E+00   -1.4774819431E+00
   -1.4705713122E+00   -1.4615527502E+00   -1.4504556027E+00   -1.4373132664E+00
   -1.4221631355E+00   -1.4050465387E+00   -1.3860086641E+00   -1.3650984750E+00
   -1.3423686188E+00   -1.3178753143E+00   -1.2916782457E+00   -1.2638404328E+00
   -1.2344280937E+00   -1.2035105104E+00   -1.1711598590E+00   -1.1374510629E+00
   -1.1024616129E+00   -1.0662713735E+00   -1.0289624469E+00   -9.9061888825E-01
   -9.5132657915E-01   -9.1117302117E-01   -8.7024703356E-01   -8.2863861832E-01
   -7.8643872663E-01   -7.4373899955E-01   -7.0063151534E-01   -6.5720860464E-01
   -6.1356259346E-01   -5.6978557649E-01   -5.2596916285E-01   -4.8220419762E-01
   -4.3858058898E-01   -3.9518704791E-01   -3.5211085467E-01   -3.0943762886E-01
   -2.6725110393E-01   -2.2563290694E-01   -1.8466234425E-01   -1.4441619402E-01
   -1.0496850618E-01   -6.6390410617E-02   -2.8749934332E-02    7.8881718481E-03
    4.3462596264E-02    7.7915618503E-02    1.1119324996E-01    1.4324536231E-01
    1.7402580325E-01    2.0349249917E-01    2.3160754412E-01    2.5833727480E-01
    2.8365233112E-01    3.0752760548E-01    3.2994255957E-01    3.5088099031E-01
    3.7033108820E-01    3.8828543349E-01    4.0474096744E-01    4.1969888391E-01
    4.3316471788E-01    4.4514828772E-01    4.5566344098E-01    4.6472802718E-01
    4.7236372882E-01    4.7859610046E-01    4.8345437324E-01    4.8697118273E-01
    4.8918246218E-01    4.9012732906E-01    4.8984790331E-01    4.8838899710E-01
    4.8579802096E-01    4.8212478511E-01    4.7742110687E-01    4.7174072031E-01
    4.6513932021E-01    4.5767360018E-01    4.4940153103E-01    4.4038240281E-01
    4.3067581108E-01    4.2034162232E-01    4.0944051109E-01    3.9803267033E-01
    3.8617756534E-01    3.7393510121E-01    3.6136356831E-01    3.4851983418E-01