<UPF version="2.0.1">
  <PP_INFO>

 This pseudopotential file has been produced using the code
 ONCVPSP  (Optimized Norm-Conservinng Vanderbilt PSeudopotential)
 scalar-relativistic version 2.1.1, 03/26/2014 by D. R. Hamann
 The code is available through a link at URL www.mat-simresearch.com.
 Documentation with the package provides a full discription of the
 input data below.


 While it is not required under the terms of the GNU GPL, it is
 suggested that you cite D. R. Hamann, Phys. Rev. B 88, 085117 (2013)
 in any publication using these pseudopotentials.

    <PP_INPUTFILE>
# ATOM AND REFERENCE CONFIGURATION
# atsym  z    nc    nv    iexc   psfile
  Rb 37.00     6     3     4      upf
#
#   n    l    f        energy (Ha)
    1    0    2.00
    2    0    2.00
    2    1    6.00
    3    0    2.00
    3    1    6.00
    3    2   10.00
    4    0    2.00
    4    1    6.00
    5    0    1.00
#
# PSEUDOPOTENTIAL AND OPTIMIZATION
# lmax
    2
#
#   l,   rc,     ep,   ncon, nbas, qcut
    0   3.18390  -1.17207    5    8   5.07318
    1   2.99956  -0.58667    5    8   5.66455
    2   2.89411   0.16049    5    8   6.12562
#
# LOCAL POTENTIAL
# lloc, lpopt,  rc(5),   dvloc0
    4    5   2.39126      0.00000
#
# VANDERBILT-KLEINMAN-BYLANDER PROJECTORs
# l, nproj, debl
    0    2   1.09006
    1    2   1.19211
    2    2   1.22508
#
# MODEL CORE CHARGE
# icmod, fcfact
    0   0.00000
#
# LOG DERIVATIVE ANALYSIS
# epsh1, epsh2, depsh
   -5.00    3.00    0.02
#
# OUTPUT GRID
# rlmax, drl
    6.00    0.01
#
# TEST CONFIGURATIONS
# ncnf
    0
# nvcnf
#   n    l    f
    </PP_INPUTFILE>
  </PP_INFO>
  <!--                               -->
  <!-- END OF HUMAN READABLE SECTION -->
  <!--                               -->
    <PP_HEADER
       generated="Generated using ONCVPSP code by D. R. Hamann"
       author="anonymous"
       date="241015"
       comment=""
       element="Rb"
       pseudo_type="NC"
       relativistic="scalar"
       is_ultrasoft="F"
       is_paw="F"
       is_coulomb="F"
       has_so="F"
       has_wfc="F"
       has_gipaw="T"
       core_correction="F"
       functional="PBE"
       z_valence="    9.00"
       total_psenergy="  -2.44291087683E+01"
       rho_cutoff="   6.01000000000E+00"
       l_max="2"
       l_local="-1"
       mesh_size="   602"
       number_of_wfc="0"
       number_of_proj="6"/>
 <PP_MESH>
   <PP_R type="real"  size=" 602" columns="8">
    0.0000    0.0100    0.0200    0.0300    0.0400    0.0500    0.0600    0.0700
    0.0800    0.0900    0.1000    0.1100    0.1200    0.1300    0.1400    0.1500
    0.1600    0.1700    0.1800    0.1900    0.2000    0.2100    0.2200    0.2300
    0.2400    0.2500    0.2600    0.2700    0.2800    0.2900    0.3000    0.3100
    0.3200    0.3300    0.3400    0.3500    0.3600    0.3700    0.3800    0.3900
    0.4000    0.4100    0.4200    0.4300    0.4400    0.4500    0.4600    0.4700
    0.4800    0.4900    0.5000    0.5100    0.5200    0.5300    0.5400    0.5500
    0.5600    0.5700    0.5800    0.5900    0.6000    0.6100    0.6200    0.6300
    0.6400    0.6500    0.6600    0.6700    0.6800    0.6900    0.7000    0.7100
    0.7200    0.7300    0.7400    0.7500    0.7600    0.7700    0.7800    0.7900
    0.8000    0.8100    0.8200    0.8300    0.8400    0.8500    0.8600    0.8700
    0.8800    0.8900    0.9000    0.9100    0.9200    0.9300    0.9400    0.9500
    0.9600    0.9700    0.9800    0.9900    1.0000    1.0100    1.0200    1.0300
    1.0400    1.0500    1.0600    1.0700    1.0800    1.0900    1.1000    1.1100
    1.1200    1.1300    1.1400    1.1500    1.1600    1.1700    1.1800    1.1900
    1.2000    1.2100    1.2200    1.2300    1.2400    1.2500    1.2600    1.2700
    1.2800    1.2900    1.3000    1.3100    1.3200    1.3300    1.3400    1.3500
    1.3600    1.3700    1.3800    1.3900    1.4000    1.4100    1.4200    1.4300
    1.4400    1.4500    1.4600    1.4700    1.4800    1.4900    1.5000    1.5100
    1.5200    1.5300    1.5400    1.5500    1.5600    1.5700    1.5800    1.5900
    1.6000    1.6100    1.6200    1.6300    1.6400    1.6500    1.6600    1.6700
    1.6800    1.6900    1.7000    1.7100    1.7200    1.7300    1.7400    1.7500
    1.7600    1.7700    1.7800    1.7900    1.8000    1.8100    1.8200    1.8300
    1.8400    1.8500    1.8600    1.8700    1.8800    1.8900    1.9000    1.9100
    1.9200    1.9300    1.9400    1.9500    1.9600    1.9700    1.9800    1.9900
    2.0000    2.0100    2.0200    2.0300    2.0400    2.0500    2.0600    2.0700
    2.0800    2.0900    2.1000    2.1100    2.1200    2.1300    2.1400    2.1500
    2.1600    2.1700    2.1800    2.1900    2.2000    2.2100    2.2200    2.2300
    2.2400    2.2500    2.2600    2.2700    2.2800    2.2900    2.3000    2.3100
    2.3200    2.3300    2.3400    2.3500    2.3600    2.3700    2.3800    2.3900
    2.4000    2.4100    2.4200    2.4300    2.4400    2.4500    2.4600    2.4700
    2.4800    2.4900    2.5000    2.5100    2.5200    2.5300    2.5400    2.5500
    2.5600    2.5700    2.5800    2.5900    2.6000    2.6100    2.6200    2.6300
    2.6400    2.6500    2.6600    2.6700    2.6800    2.6900    2.7000    2.7100
    2.7200    2.7300    2.7400    2.7500    2.7600    2.7700    2.7800    2.7900
    2.8000    2.8100    2.8200    2.8300    2.8400    2.8500    2.8600    2.8700
    2.8800    2.8900    2.9000    2.9100    2.9200    2.9300    2.9400    2.9500
    2.9600    2.9700    2.9800    2.9900    3.0000    3.0100    3.0200    3.0300
    3.0400    3.0500    3.0600    3.0700    3.0800    3.0900    3.1000    3.1100
    3.1200    3.1300    3.1400    3.1500    3.1600    3.1700    3.1800    3.1900
    3.2000    3.2100    3.2200    3.2300    3.2400    3.2500    3.2600    3.2700
    3.2800    3.2900    3.3000    3.3100    3.3200    3.3300    3.3400    3.3500
    3.3600    3.3700    3.3800    3.3900    3.4000    3.4100    3.4200    3.4300
    3.4400    3.4500    3.4600    3.4700    3.4800    3.4900    3.5000    3.5100
    3.5200    3.5300    3.5400    3.5500    3.5600    3.5700    3.5800    3.5900
    3.6000    3.6100    3.6200    3.6300    3.6400    3.6500    3.6600    3.6700
    3.6800    3.6900    3.7000    3.7100    3.7200    3.7300    3.7400    3.7500
    3.7600    3.7700    3.7800    3.7900    3.8000    3.8100    3.8200    3.8300
    3.8400    3.8500    3.8600    3.8700    3.8800    3.8900    3.9000    3.9100
    3.9200    3.9300    3.9400    3.9500    3.9600    3.9700    3.9800    3.9900
    4.0000    4.0100    4.0200    4.0300    4.0400    4.0500    4.0600    4.0700
    4.0800    4.0900    4.1000    4.1100    4.1200    4.1300    4.1400    4.1500
    4.1600    4.1700    4.1800    4.1900    4.2000    4.2100    4.2200    4.2300
    4.2400    4.2500    4.2600    4.2700    4.2800    4.2900    4.3000    4.3100
    4.3200    4.3300    4.3400    4.3500    4.3600    4.3700    4.3800    4.3900
    4.4000    4.4100    4.4200    4.4300    4.4400    4.4500    4.4600    4.4700
    4.4800    4.4900    4.5000    4.5100    4.5200    4.5300    4.5400    4.5500
    4.5600    4.5700    4.5800    4.5900    4.6000    4.6100    4.6200    4.6300
    4.6400    4.6500    4.6600    4.6700    4.6800    4.6900    4.7000    4.7100
    4.7200    4.7300    4.7400    4.7500    4.7600    4.7700    4.7800    4.7900
    4.8000    4.8100    4.8200    4.8300    4.8400    4.8500    4.8600    4.8700
    4.8800    4.8900    4.9000    4.9100    4.9200    4.9300    4.9400    4.9500
    4.9600    4.9700    4.9800    4.9900    5.0000    5.0100    5.0200    5.0300
    5.0400    5.0500    5.0600    5.0700    5.0800    5.0900    5.1000    5.1100
    5.1200    5.1300    5.1400    5.1500    5.1600    5.1700    5.1800    5.1900
    5.2000    5.2100    5.2200    5.2300    5.2400    5.2500    5.2600    5.2700
    5.2800    5.2900    5.3000    5.3100    5.3200    5.3300    5.3400    5.3500
    5.3600    5.3700    5.3800    5.3900    5.4000    5.4100    5.4200    5.4300
    5.4400    5.4500    5.4600    5.4700    5.4800    5.4900    5.5000    5.5100
    5.5200    5.5300    5.5400    5.5500    5.5600    5.5700    5.5800    5.5900
    5.6000    5.6100    5.6200    5.6300    5.6400    5.6500    5.6600    5.6700
    5.6800    5.6900    5.7000    5.7100    5.7200    5.7300    5.7400    5.7500
    5.7600    5.7700    5.7800    5.7900    5.8000    5.8100    5.8200    5.8300
    5.8400    5.8500    5.8600    5.8700    5.8800    5.8900    5.9000    5.9100
    5.9200    5.9300    5.9400    5.9500    5.9600    5.9700    5.9800    5.9900
    6.0000    6.0100
   </PP_R>
   <PP_RAB type="real"  size=" 602" columns="8">
    0.0100    0.0100    0.0100    0.0100    0.0100    0.0100    0.0100    0.0100
    0.0100    0.0100    0.0100    0.0100    0.0100    0.0100    0.0100    0.0100
    0.0100    0.0100    0.0100    0.0100    0.0100    0.0100    0.0100    0.0100
    0.0100    0.0100    0.0100    0.0100    0.0100    0.0100    0.0100    0.0100
    0.0100    0.0100    0.0100    0.0100    0.0100    0.0100    0.0100    0.0100
    0.0100    0.0100    0.0100    0.0100    0.0100    0.0100    0.0100    0.0100
    0.0100    0.0100    0.0100    0.0100    0.0100    0.0100    0.0100    0.0100
    0.0100    0.0100    0.0100    0.0100    0.0100    0.0100    0.0100    0.0100
    0.0100    0.0100    0.0100    0.0100    0.0100    0.0100    0.0100    0.0100
    0.0100    0.0100    0.0100    0.0100    0.0100    0.0100    0.0100    0.0100
    0.0100    0.0100    0.0100    0.0100    0.0100    0.0100    0.0100    0.0100
    0.0100    0.0100    0.0100    0.0100    0.0100    0.0100    0.0100    0.0100
    0.0100    0.0100    0.0100    0.0100    0.0100    0.0100    0.0100    0.0100
    0.0100    0.0100    0.0100    0.0100    0.0100    0.0100    0.0100    0.0100
    0.0100    0.0100    0.0100    0.0100    0.0100    0.0100    0.0100    0.0100
    0.0100    0.0100    0.0100    0.0100    0.0100    0.0100    0.0100    0.0100
    0.0100    0.0100    0.0100    0.0100    0.0100    0.0100    0.0100    0.0100
    0.0100    0.0100    0.0100    0.0100    0.0100    0.0100    0.0100    0.0100
    0.0100    0.0100    0.0100    0.0100    0.0100    0.0100    0.0100    0.0100
    0.0100    0.0100    0.0100    0.0100    0.0100    0.0100    0.0100    0.0100
    0.0100    0.0100    0.0100    0.0100    0.0100    0.0100    0.0100    0.0100
    0.0100    0.0100    0.0100    0.0100    0.0100    0.0100    0.0100    0.0100
    0.0100    0.0100    0.0100    0.0100    0.0100    0.0100    0.0100    0.0100
    0.0100    0.0100    0.0100    0.0100    0.0100    0.0100    0.0100    0.0100
    0.0100    0.0100    0.0100    0.0100    0.0100    0.0100    0.0100    0.0100
    0.0100    0.0100    0.0100    0.0100    0.0100    0.0100    0.0100    0.0100
    0.0100    0.0100    0.0100    0.0100    0.0100    0.0100    0.0100    0.0100
    0.0100    0.0100    0.0100    0.0100    0.0100    0.0100    0.0100    0.0100
    0.0100    0.0100    0.0100    0.0100    0.0100    0.0100    0.0100    0.0100
    0.0100    0.0100    0.0100    0.0100    0.0100    0.0100    0.0100    0.0100
    0.0100    0.0100    0.0100    0.0100    0.0100    0.0100    0.0100    0.0100
    0.0100    0.0100    0.0100    0.0100    0.0100    0.0100    0.0100    0.0100
    0.0100    0.0100    0.0100    0.0100    0.0100    0.0100    0.0100    0.0100
    0.0100    0.0100    0.0100    0.0100    0.0100    0.0100    0.0100    0.0100
    0.0100    0.0100    0.0100    0.0100    0.0100    0.0100    0.0100    0.0100
    0.0100    0.0100    0.0100    0.0100    0.0100    0.0100    0.0100    0.0100
    0.0100    0.0100    0.0100    0.0100    0.0100    0.0100    0.0100    0.0100
    0.0100    0.0100    0.0100    0.0100    0.0100    0.0100    0.0100    0.0100
    0.0100    0.0100    0.0100    0.0100    0.0100    0.0100    0.0100    0.0100
    0.0100    0.0100    0.0100    0.0100    0.0100    0.0100    0.0100    0.0100
    0.0100    0.0100    0.0100    0.0100    0.0100    0.0100    0.0100    0.0100
    0.0100    0.0100    0.0100    0.0100    0.0100    0.0100    0.0100    0.0100
    0.0100    0.0100    0.0100    0.0100    0.0100    0.0100    0.0100    0.0100
    0.0100    0.0100    0.0100    0.0100    0.0100    0.0100    0.0100    0.0100
    0.0100    0.0100    0.0100    0.0100    0.0100    0.0100    0.0100    0.0100
    0.0100    0.0100    0.0100    0.0100    0.0100    0.0100    0.0100    0.0100
    0.0100    0.0100    0.0100    0.0100    0.0100    0.0100    0.0100    0.0100
    0.0100    0.0100    0.0100    0.0100    0.0100    0.0100    0.0100    0.0100
    0.0100    0.0100    0.0100    0.0100    0.0100    0.0100    0.0100    0.0100
    0.0100    0.0100    0.0100    0.0100    0.0100    0.0100    0.0100    0.0100
    0.0100    0.0100    0.0100    0.0100    0.0100    0.0100    0.0100    0.0100
    0.0100    0.0100    0.0100    0.0100    0.0100    0.0100    0.0100    0.0100
    0.0100    0.0100    0.0100    0.0100    0.0100    0.0100    0.0100    0.0100
    0.0100    0.0100    0.0100    0.0100    0.0100    0.0100    0.0100    0.0100
    0.0100    0.0100    0.0100    0.0100    0.0100    0.0100    0.0100    0.0100
    0.0100    0.0100    0.0100    0.0100    0.0100    0.0100    0.0100    0.0100
    0.0100    0.0100    0.0100    0.0100    0.0100    0.0100    0.0100    0.0100
    0.0100    0.0100    0.0100    0.0100    0.0100    0.0100    0.0100    0.0100
    0.0100    0.0100    0.0100    0.0100    0.0100    0.0100    0.0100    0.0100
    0.0100    0.0100    0.0100    0.0100    0.0100    0.0100    0.0100    0.0100
    0.0100    0.0100    0.0100    0.0100    0.0100    0.0100    0.0100    0.0100
    0.0100    0.0100    0.0100    0.0100    0.0100    0.0100    0.0100    0.0100
    0.0100    0.0100    0.0100    0.0100    0.0100    0.0100    0.0100    0.0100
    0.0100    0.0100    0.0100    0.0100    0.0100    0.0100    0.0100    0.0100
    0.0100    0.0100    0.0100    0.0100    0.0100    0.0100    0.0100    0.0100
    0.0100    0.0100    0.0100    0.0100    0.0100    0.0100    0.0100    0.0100
    0.0100    0.0100    0.0100    0.0100    0.0100    0.0100    0.0100    0.0100
    0.0100    0.0100    0.0100    0.0100    0.0100    0.0100    0.0100    0.0100
    0.0100    0.0100    0.0100    0.0100    0.0100    0.0100    0.0100    0.0100
    0.0100    0.0100    0.0100    0.0100    0.0100    0.0100    0.0100    0.0100
    0.0100    0.0100    0.0100    0.0100    0.0100    0.0100    0.0100    0.0100
    0.0100    0.0100    0.0100    0.0100    0.0100    0.0100    0.0100    0.0100
    0.0100    0.0100    0.0100    0.0100    0.0100    0.0100    0.0100    0.0100
    0.0100    0.0100    0.0100    0.0100    0.0100    0.0100    0.0100    0.0100
    0.0100    0.0100    0.0100    0.0100    0.0100    0.0100    0.0100    0.0100
    0.0100    0.0100
   </PP_RAB>
 </PP_MESH>
  <PP_LOCAL type="real"  size=" 602" columns="4">
   -1.7183265172E+01   -1.7183256039E+01   -1.7183287144E+01   -1.7183294227E+01
   -1.7183213026E+01   -1.7182959042E+01   -1.7182432380E+01   -1.7181523173E+01
   -1.7180117159E+01   -1.7178100977E+01   -1.7175366871E+01   -1.7171816556E+01
   -1.7167364102E+01   -1.7161937834E+01   -1.7155481277E+01   -1.7147953272E+01
   -1.7139327406E+01   -1.7129590934E+01   -1.7118743335E+01   -1.7106794676E+01
   -1.7093763881E+01   -1.7079677028E+01   -1.7064565729E+01   -1.7048465654E+01
   -1.7031415219E+01   -1.7013454455E+01   -1.6994624059E+01   -1.6974964611E+01
   -1.6954515953E+01   -1.6933316701E+01   -1.6911403885E+01   -1.6888812684E+01
   -1.6865576248E+01   -1.6841725590E+01   -1.6817289536E+01   -1.6792294703E+01
   -1.6766765534E+01   -1.6740724331E+01   -1.6714191328E+01   -1.6687184763E+01
   -1.6659720968E+01   -1.6631814448E+01   -1.6603477986E+01   -1.6574722729E+01
   -1.6545558284E+01   -1.6515992815E+01   -1.6486033130E+01   -1.6455684768E+01
   -1.6424952094E+01   -1.6393838379E+01   -1.6362345893E+01   -1.6330475974E+01
   -1.6298229112E+01   -1.6265605039E+01   -1.6232602787E+01   -1.6199220776E+01
   -1.6165456884E+01   -1.6131308514E+01   -1.6096772671E+01   -1.6061846025E+01
   -1.6026524975E+01   -1.5990805725E+01   -1.5954684331E+01   -1.5918156773E+01
   -1.5881219006E+01   -1.5843867022E+01   -1.5806096897E+01   -1.5767904842E+01
   -1.5729287258E+01   -1.5690240773E+01   -1.5650762283E+01   -1.5610848991E+01
   -1.5570498450E+01   -1.5529708588E+01   -1.5488477734E+01   -1.5446804642E+01
   -1.5404688520E+01   -1.5362129038E+01   -1.5319126344E+01   -1.5275681085E+01
   -1.5231794404E+01   -1.5187467945E+01   -1.5142703855E+01   -1.5097504783E+01
   -1.5051873876E+01   -1.5005814769E+01   -1.4959331580E+01   -1.4912428892E+01
   -1.4865111746E+01   -1.4817385621E+01   -1.4769256418E+01   -1.4720730444E+01
   -1.4671814384E+01   -1.4622515299E+01   -1.4572840590E+01   -1.4522797982E+01
   -1.4472395500E+01   -1.4421641448E+01   -1.4370544390E+01   -1.4319113126E+01
   -1.4267356664E+01   -1.4215284219E+01   -1.4162905180E+01   -1.4110229089E+01
   -1.4057265623E+01   -1.4004024578E+01   -1.3950515845E+01   -1.3896749415E+01
   -1.3842735339E+01   -1.3788483722E+01   -1.3734004708E+01   -1.3679308474E+01
   -1.3624405209E+01   -1.3569305104E+01   -1.3514018347E+01   -1.3458555110E+01
   -1.3402925534E+01   -1.3347139727E+01   -1.3291207766E+01   -1.3235139666E+01
   -1.3178945388E+01   -1.3122634841E+01   -1.3066217869E+01   -1.3009704226E+01
   -1.2953103604E+01   -1.2896425633E+01   -1.2839679820E+01   -1.2782875608E+01
   -1.2726022373E+01   -1.2669129347E+01   -1.2612205703E+01   -1.2555260529E+01
   -1.2498302764E+01   -1.2441341297E+01   -1.2384384897E+01   -1.2327442199E+01
   -1.2270521802E+01   -1.2213632123E+01   -1.2156781503E+01   -1.2099978210E+01
   -1.2043230315E+01   -1.1986545876E+01   -1.1929932763E+01   -1.1873398756E+01
   -1.1816951564E+01   -1.1760598681E+01   -1.1704347617E+01   -1.1648205634E+01
   -1.1592179967E+01   -1.1536277701E+01   -1.1480505773E+01   -1.1424871088E+01
   -1.1369380287E+01   -1.1314040079E+01   -1.1258856837E+01   -1.1203837006E+01
   -1.1148986754E+01   -1.1094312232E+01   -1.1039819402E+01   -1.0985514122E+01
   -1.0931402139E+01   -1.0877489019E+01   -1.0823780290E+01   -1.0770281228E+01
   -1.0716997131E+01   -1.0663932988E+01   -1.0611093862E+01   -1.0558484460E+01
   -1.0506109595E+01   -1.0453973700E+01   -1.0402081331E+01   -1.0350436651E+01
   -1.0299043949E+01   -1.0247907127E+01   -1.0197030192E+01   -1.0146416799E+01
   -1.0096070659E+01   -1.0045995191E+01   -9.9961937957E+00   -9.9466696737E+00
   -9.8974258962E+00   -9.8484654630E+00   -9.7997911013E+00   -9.7514056261E+00
   -9.7033114068E+00   -9.6555110890E+00   -9.6080067080E+00   -9.5608006510E+00
   -9.5138947399E+00   -9.4672910045E+00   -9.4209911340E+00   -9.3749967609E+00
   -9.3293094700E+00   -9.2839304821E+00   -9.2388612950E+00   -9.1941027774E+00
   -9.1496561635E+00   -9.1055221898E+00   -9.0617016835E+00   -9.0181953477E+00
   -8.9750035676E+00   -8.9321270289E+00   -8.8895657738E+00   -8.8473201973E+00
   -8.8053903094E+00   -8.7637760633E+00   -8.7224775077E+00   -8.6814942021E+00
   -8.6408260512E+00   -8.6004724899E+00   -8.5604330189E+00   -8.5207071590E+00
   -8.4812940038E+00   -8.4421929784E+00   -8.4034030541E+00   -8.3649232528E+00
   -8.3267526763E+00   -8.2888899567E+00   -8.2513340460E+00   -8.2140835506E+00
   -8.1771369763E+00   -8.1404931054E+00   -8.1041500966E+00   -8.0681064162E+00
   -8.0323603979E+00   -7.9969100402E+00   -7.9617536718E+00   -7.9268891744E+00
   -7.8923143990E+00   -7.8580275079E+00   -7.8240259433E+00   -7.7903074796E+00
   -7.7568698604E+00   -7.7237103189E+00   -7.6908264646E+00   -7.6582156001E+00
   -7.6258747433E+00   -7.5938013022E+00   -7.5619921435E+00   -7.5304440869E+00
   -7.4991540876E+00   -7.4681190040E+00   -7.4373357138E+00   -7.4068008765E+00
   -7.3765117868E+00   -7.3464654885E+00   -7.3166588819E+00   -7.2870894332E+00
   -7.2577543585E+00   -7.2286507934E+00   -7.1997763333E+00   -7.1711283545E+00
   -7.1427041791E+00   -7.1145015183E+00   -7.0865178942E+00   -7.0587507748E+00
   -7.0311979744E+00   -7.0038571468E+00   -6.9767258720E+00   -6.9498020568E+00
   -6.9230834722E+00   -6.8965677844E+00   -6.8702529829E+00   -6.8441369350E+00
   -6.8182173990E+00   -6.7924924133E+00   -6.7669599322E+00   -6.7416178148E+00
   -6.7164641186E+00   -6.6914968851E+00   -6.6667140666E+00   -6.6421137311E+00
   -6.6176940047E+00   -6.5934529295E+00   -6.5693885748E+00   -6.5454991525E+00
   -6.5217827969E+00   -6.4982375661E+00   -6.4748617625E+00   -6.4516535919E+00
   -6.4286111725E+00   -6.4057328179E+00   -6.3830168276E+00   -6.3604614198E+00
   -6.3380648714E+00   -6.3158255964E+00   -6.2937419317E+00   -6.2718120940E+00
   -6.2500346223E+00   -6.2284079288E+00   -6.2069303394E+00   -6.1856003358E+00
   -6.1644164684E+00   -6.1433772076E+00   -6.1224809371E+00   -6.1017263558E+00
   -6.0811120309E+00   -6.0606364394E+00   -6.0402982216E+00   -6.0200960795E+00
   -6.0000286486E+00   -5.9800944661E+00   -5.9602923439E+00   -5.9406209823E+00
   -5.9210790295E+00   -5.9016651971E+00   -5.8823783044E+00   -5.8632171065E+00
   -5.8441802534E+00   -5.8252666260E+00   -5.8064750672E+00   -5.7878043782E+00
   -5.7692532903E+00   -5.7508207796E+00   -5.7325057173E+00   -5.7143069272E+00
   -5.6962232732E+00   -5.6782537538E+00   -5.6603972933E+00   -5.6426527444E+00
   -5.6250190862E+00   -5.6074953393E+00   -5.5900804780E+00   -5.5727733885E+00
   -5.5555731451E+00   -5.5384787936E+00   -5.5214893555E+00   -5.5046037517E+00
   -5.4878211365E+00   -5.4711405858E+00   -5.4545611654E+00   -5.4380818391E+00
   -5.4217018216E+00   -5.4054202231E+00   -5.3892361489E+00   -5.3731486184E+00
   -5.3571568814E+00   -5.3412600897E+00   -5.3254573907E+00   -5.3097478454E+00
   -5.2941307416E+00   -5.2786052707E+00   -5.2631706239E+00   -5.2478258955E+00
   -5.2325704091E+00   -5.2174033953E+00   -5.2023240830E+00   -5.1873316151E+00
   -5.1724253259E+00   -5.1576044923E+00   -5.1428683792E+00   -5.1282161809E+00
   -5.1136472306E+00   -5.0991608541E+00   -5.0847563506E+00   -5.0704329689E+00
   -5.0561900297E+00   -5.0420269103E+00   -5.0279429425E+00   -5.0139374324E+00
   -5.0000096784E+00   -4.9861591106E+00   -4.9723850920E+00   -4.9586869854E+00
   -4.9450640684E+00   -4.9315158146E+00   -4.9180416197E+00   -4.9046408766E+00
   -4.8913129233E+00   -4.8780571889E+00   -4.8648731294E+00   -4.8517601658E+00
   -4.8387177012E+00   -4.8257451113E+00   -4.8128419126E+00   -4.8000075529E+00
   -4.7872414804E+00   -4.7745430807E+00   -4.7619118606E+00   -4.7493473164E+00
   -4.7368489219E+00   -4.7244161318E+00   -4.7120483809E+00   -4.6997452310E+00
   -4.6875061804E+00   -4.6753307277E+00   -4.6632183181E+00   -4.6511684900E+00
   -4.6391807934E+00   -4.6272547502E+00   -4.6153898797E+00   -4.6035856323E+00
   -4.5918416266E+00   -4.5801574066E+00   -4.5685325167E+00   -4.5569664734E+00
   -4.5454588057E+00   -4.5340091290E+00   -4.5226170086E+00   -4.5112820100E+00
   -4.5000036522E+00   -4.4887815299E+00   -4.4776152582E+00   -4.4665044226E+00
   -4.4554486088E+00   -4.4444473426E+00   -4.4335002721E+00   -4.4226070153E+00
   -4.4117671771E+00   -4.4009803625E+00   -4.3902461081E+00   -4.3795641030E+00
   -4.3689339722E+00   -4.3583553392E+00   -4.3478278225E+00   -4.3373509872E+00
   -4.3269245379E+00   -4.3165481154E+00   -4.3062213607E+00   -4.2959439076E+00
   -4.2857153448E+00   -4.2755353903E+00   -4.2654037014E+00   -4.2553199359E+00
   -4.2452837462E+00   -4.2352947350E+00   -4.2253526364E+00   -4.2154571238E+00
   -4.2056078707E+00   -4.1958045505E+00   -4.1860467737E+00   -4.1763342903E+00
   -4.1666667900E+00   -4.1570439614E+00   -4.1474654932E+00   -4.1379310211E+00
   -4.1284402879E+00   -4.1189930073E+00   -4.1095888824E+00   -4.1002276163E+00
   -4.0909088731E+00   -4.0816323798E+00   -4.0723978769E+00   -4.0632050813E+00
   -4.0540537101E+00   -4.0449434584E+00   -4.0358740299E+00   -4.0268451942E+00
   -4.0178566814E+00   -4.0089082217E+00   -3.9999995440E+00   -3.9911303224E+00
   -3.9823003569E+00   -3.9735093900E+00   -3.9647571647E+00   -3.9560434235E+00
   -3.9473678731E+00   -3.9387302771E+00   -3.9301304127E+00   -3.9215680344E+00
   -3.9130428971E+00   -3.9045547466E+00   -3.8961033005E+00   -3.8876883724E+00
   -3.8793097285E+00   -3.8709671350E+00   -3.8626603580E+00   -3.8543891290E+00
   -3.8461532344E+00   -3.8379524722E+00   -3.8297866195E+00   -3.8216554534E+00
   -3.8135587494E+00   -3.8054962345E+00   -3.7974677478E+00   -3.7894730768E+00
   -3.7815120089E+00   -3.7735843316E+00   -3.7656898129E+00   -3.7578282294E+00
   -3.7499994122E+00   -3.7422031586E+00   -3.7344392660E+00   -3.7267075317E+00
   -3.7190077204E+00   -3.7113396488E+00   -3.7037031429E+00   -3.6960980094E+00
   -3.6885240552E+00   -3.6809810871E+00   -3.6734688702E+00   -3.6659872517E+00
   -3.6585360561E+00   -3.6511150991E+00   -3.6437241965E+00   -3.6363631642E+00
   -3.6290317712E+00   -3.6217298863E+00   -3.6144573357E+00   -3.6072139439E+00
   -3.5999995353E+00   -3.5928139333E+00   -3.5856569169E+00   -3.5785283650E+00
   -3.5714281103E+00   -3.5643559853E+00   -3.5573118226E+00   -3.5502954544E+00
   -3.5433066677E+00   -3.5363453489E+00   -3.5294113381E+00   -3.5225044759E+00
   -3.5156246026E+00   -3.5087715587E+00   -3.5019451423E+00   -3.4951452393E+00
   -3.4883717009E+00   -3.4816243749E+00   -3.4749031092E+00   -3.4682077515E+00
   -3.4615381154E+00   -3.4548940779E+00   -3.4482755043E+00   -3.4416822495E+00
   -3.4351141685E+00   -3.4285711161E+00   -3.4220529237E+00   -3.4155594530E+00
   -3.4090905858E+00   -3.4026461841E+00   -3.3962261093E+00   -3.3898302232E+00
   -3.3834583774E+00   -3.3771104123E+00   -3.3707862288E+00   -3.3644856948E+00
   -3.3582086786E+00   -3.3519550482E+00   -3.3457246718E+00   -3.3395173821E+00
   -3.3333330814E+00   -3.3271716503E+00   -3.3210329630E+00   -3.3149168938E+00
   -3.3088233169E+00   -3.3027520905E+00   -3.2967030824E+00   -3.2906761974E+00
   -3.2846713157E+00   -3.2786883174E+00   -3.2727270826E+00   -3.2667874915E+00
   -3.2608693901E+00   -3.2549726916E+00   -3.2490972874E+00   -3.2432430631E+00
   -3.2374099045E+00   -3.2315976972E+00   -3.2258063175E+00   -3.2200356324E+00
   -3.2142855624E+00   -3.2085559984E+00   -3.2028468314E+00   -3.1971579526E+00
   -3.1914892528E+00   -3.1858406022E+00   -3.1802118984E+00   -3.1746030545E+00
   -3.1690139668E+00   -3.1634445312E+00   -3.1578946439E+00   -3.1523642010E+00
   -3.1468530699E+00   -3.1413611708E+00   -3.1358884128E+00   -3.1304346971E+00
   -3.1249999245E+00   -3.1195839960E+00   -3.1141868125E+00   -3.1088082418E+00
   -3.1034482194E+00   -3.0981066536E+00   -3.0927834500E+00   -3.0874785142E+00
   -3.0821917518E+00   -3.0769230682E+00   -3.0716723346E+00   -3.0664394947E+00
   -3.0612244591E+00   -3.0560271377E+00   -3.0508474404E+00   -3.0456852773E+00
   -3.0405405582E+00   -3.0354131602E+00   -3.0303030289E+00   -3.0252100797E+00
   -3.0201342269E+00   -3.0150753845E+00   -3.0100334667E+00   -3.0050083877E+00
   -3.0000000327E+00   -2.9950083434E+00
  </PP_LOCAL>
 <PP_NONLOCAL>
   <PP_BETA.1
       type="real"
       size=" 602"
       columns="4"
       index="1"
       angular_momentum="0"
       cutoff_radius_index=" 322"
       cutoff_radius="    3.2100000000E+00" >
    0.0000000000E+00   -3.3958956556E-02   -6.7890493014E-02   -1.0176721539E-01
   -1.3556178192E-01   -1.6924692906E-01   -2.0279549751E-01   -2.3618045805E-01
   -2.6937493727E-01   -3.0235224323E-01   -3.3508589083E-01   -3.6754962707E-01
   -3.9971745607E-01   -4.3156366383E-01   -4.6306284273E-01   -4.9418991576E-01
   -5.2492016038E-01   -5.5522923213E-01   -5.8509318781E-01   -6.1448850827E-01
   -6.4339212085E-01   -6.7178142134E-01   -6.9963429552E-01   -7.2692914021E-01
   -7.5364488383E-01   -7.7976100643E-01   -8.0525755926E-01   -8.3011518357E-01
   -8.5431512918E-01   -8.7783927210E-01   -9.0067013177E-01   -9.2279088746E-01
   -9.4418539437E-01   -9.6483819864E-01   -9.8473455171E-01   -1.0038604247E+00
   -1.0222025205E+00   -1.0397482873E+00   -1.0564859293E+00   -1.0724044178E+00
   -1.0874935010E+00   -1.1017437139E+00   -1.1151463859E+00   -1.1276936491E+00
   -1.1393784447E+00   -1.1501945289E+00   -1.1601364781E+00   -1.1691996933E+00
   -1.1773804033E+00   -1.1846756674E+00   -1.1910833762E+00   -1.1966022535E+00
   -1.2012318558E+00   -1.2049725702E+00   -1.2078256144E+00   -1.2097930321E+00
   -1.2108776902E+00   -1.2110832741E+00   -1.2104142819E+00   -1.2088760184E+00
   -1.2064745875E+00   -1.2032168842E+00   -1.1991105856E+00   -1.1941641410E+00
   -1.1883867614E+00   -1.1817884071E+00   -1.1743797763E+00   -1.1661722923E+00
   -1.1571780868E+00   -1.1474099878E+00   -1.1368815031E+00   -1.1256068060E+00
   -1.1136007124E+00   -1.1008786682E+00   -1.0874567295E+00   -1.0733515431E+00
   -1.0585803266E+00   -1.0431608480E+00   -1.0271114065E+00   -1.0104508045E+00
   -9.9319833172E-01   -9.7537374002E-01   -9.5699722028E-01   -9.3808937848E-01
   -9.1867121145E-01   -8.9876408217E-01   -8.7838969461E-01   -8.5757006836E-01
   -8.3632751277E-01   -8.1468460093E-01   -7.9266414334E-01   -7.7028916136E-01
   -7.4758286740E-01   -7.2456861980E-01   -7.0126991078E-01   -6.7771033607E-01
   -6.5391356714E-01   -6.2990332414E-01   -6.0570334889E-01   -5.8133737801E-01
   -5.5682912946E-01   -5.3220224904E-01   -5.0748028402E-01   -4.8268667919E-01
   -4.5784474129E-01   -4.3297761388E-01   -4.0810829395E-01   -3.8325947998E-01
   -3.5845366443E-01   -3.3371307773E-01   -3.0905968992E-01   -2.8451514768E-01
   -2.6010070584E-01   -2.3583729806E-01   -2.1174551589E-01   -1.8784553925E-01
   -1.6415704683E-01   -1.4069932854E-01   -1.1749129662E-01   -9.4551257367E-02
   -7.1897030143E-02   -4.9546001459E-02   -2.7515024820E-02   -5.8202754424E-03
    1.5522519075E-02    3.6498127431E-02    5.7092133832E-02    7.7290572726E-02
    9.7079990897E-02    1.1644782143E-01    1.3538193481E-01    1.5387079552E-01
    1.7190374594E-01    1.8947053964E-01    2.0656168040E-01    2.2316844685E-01
    2.3928250330E-01    2.5489648693E-01    2.7000356440E-01    2.8459745878E-01