<UPF version="2.0.1">
  <PP_INFO>

 This pseudopotential file has been produced using the code
 ONCVPSP  (Optimized Norm-Conservinng Vanderbilt PSeudopotential)
 scalar-relativistic version 2.1.1, 03/26/2014 by D. R. Hamann
 The code is available through a link at URL www.mat-simresearch.com.
 Documentation with the package provides a full discription of the
 input data below.


 While it is not required under the terms of the GNU GPL, it is
 suggested that you cite D. R. Hamann, Phys. Rev. B 88, 085117 (2013)
 in any publication using these pseudopotentials.

    <PP_INPUTFILE>
# ATOM AND REFERENCE CONFIGURATION
# atsym  z    nc    nv    iexc   psfile
  Re 75.00    10     4     4      upf
#
#   n    l    f        energy (Ha)
    1    0    2.00
    2    0    2.00
    2    1    6.00
    3    0    2.00
    3    1    6.00
    3    2   10.00
    4    0    2.00
    4    1    6.00
    4    2   10.00
    4    3   14.00
    5    0    2.00
    5    1    6.00
    6    0    2.00
    5    2    5.00
#
# PSEUDOPOTENTIAL AND OPTIMIZATION
# lmax
    3
#
#   l,   rc,     ep,   ncon, nbas, qcut
    0   1.99393  -3.13294    5    8   7.07691
    1   2.06658  -1.72761    5    8   6.99225
    2   1.79096  -0.19723    5    8   7.20092
    3   2.62339   0.16818    5    8   5.49434
#
# LOCAL POTENTIAL
# lloc, lpopt,  rc(5),   dvloc0
    4    5   1.19385      0.00000
#
# VANDERBILT-KLEINMAN-BYLANDER PROJECTORs
# l, nproj, debl
    0    2   2.91452
    1    2   1.67916
    2    2   1.16185
    3    2   1.28210
#
# MODEL CORE CHARGE
# icmod, fcfact
    0   0.00000
#
# LOG DERIVATIVE ANALYSIS
# epsh1, epsh2, depsh
   -5.00    3.00    0.02
#
# OUTPUT GRID
# rlmax, drl
    6.00    0.01
#
# TEST CONFIGURATIONS
# ncnf
    0
# nvcnf
#   n    l    f
    </PP_INPUTFILE>
  </PP_INFO>
  <!--                               -->
  <!-- END OF HUMAN READABLE SECTION -->
  <!--                               -->
    <PP_HEADER
       generated="Generated using ONCVPSP code by D. R. Hamann"
       author="anonymous"
       date="241015"
       comment=""
       element="Re"
       pseudo_type="NC"
       relativistic="scalar"
       is_ultrasoft="F"
       is_paw="F"
       is_coulomb="F"
       has_so="F"
       has_wfc="F"
       has_gipaw="T"
       core_correction="F"
       functional="PBE"
       z_valence="   15.00"
       total_psenergy="  -7.95000757639E+01"
       rho_cutoff="   6.01000000000E+00"
       l_max="3"
       l_local="-1"
       mesh_size="   602"
       number_of_wfc="0"
       number_of_proj="8"/>
 <PP_MESH>
   <PP_R type="real"  size=" 602" columns="8">
    0.0000    0.0100    0.0200    0.0300    0.0400    0.0500    0.0600    0.0700
    0.0800    0.0900    0.1000    0.1100    0.1200    0.1300    0.1400    0.1500
    0.1600    0.1700    0.1800    0.1900    0.2000    0.2100    0.2200    0.2300
    0.2400    0.2500    0.2600    0.2700    0.2800    0.2900    0.3000    0.3100
    0.3200    0.3300    0.3400    0.3500    0.3600    0.3700    0.3800    0.3900
    0.4000    0.4100    0.4200    0.4300    0.4400    0.4500    0.4600    0.4700
    0.4800    0.4900    0.5000    0.5100    0.5200    0.5300    0.5400    0.5500
    0.5600    0.5700    0.5800    0.5900    0.6000    0.6100    0.6200    0.6300
    0.6400    0.6500    0.6600    0.6700    0.6800    0.6900    0.7000    0.7100
    0.7200    0.7300    0.7400    0.7500    0.7600    0.7700    0.7800    0.7900
    0.8000    0.8100    0.8200    0.8300    0.8400    0.8500    0.8600    0.8700
    0.8800    0.8900    0.9000    0.9100    0.9200    0.9300    0.9400    0.9500
    0.9600    0.9700    0.9800    0.9900    1.0000    1.0100    1.0200    1.0300
    1.0400    1.0500    1.0600    1.0700    1.0800    1.0900    1.1000    1.1100
    1.1200    1.1300    1.1400    1.1500    1.1600    1.1700    1.1800    1.1900
    1.2000    1.2100    1.2200    1.2300    1.2400    1.2500    1.2600    1.2700
    1.2800    1.2900    1.3000    1.3100    1.3200    1.3300    1.3400    1.3500
    1.3600    1.3700    1.3800    1.3900    1.4000    1.4100    1.4200    1.4300
    1.4400    1.4500    1.4600    1.4700    1.4800    1.4900    1.5000    1.5100
    1.5200    1.5300    1.5400    1.5500    1.5600    1.5700    1.5800    1.5900
    1.6000    1.6100    1.6200    1.6300    1.6400    1.6500    1.6600    1.6700
    1.6800    1.6900    1.7000    1.7100    1.7200    1.7300    1.7400    1.7500
    1.7600    1.7700    1.7800    1.7900    1.8000    1.8100    1.8200    1.8300
    1.8400    1.8500    1.8600    1.8700    1.8800    1.8900    1.9000    1.9100
    1.9200    1.9300    1.9400    1.9500    1.9600    1.9700    1.9800    1.9900
    2.0000    2.0100    2.0200    2.0300    2.0400    2.0500    2.0600    2.0700
    2.0800    2.0900    2.1000    2.1100    2.1200    2.1300    2.1400    2.1500
    2.1600    2.1700    2.1800    2.1900    2.2000    2.2100    2.2200    2.2300
    2.2400    2.2500    2.2600    2.2700    2.2800    2.2900    2.3000    2.3100
    2.3200    2.3300    2.3400    2.3500    2.3600    2.3700    2.3800    2.3900
    2.4000    2.4100    2.4200    2.4300    2.4400    2.4500    2.4600    2.4700
    2.4800    2.4900    2.5000    2.5100    2.5200    2.5300    2.5400    2.5500
    2.5600    2.5700    2.5800    2.5900    2.6000    2.6100    2.6200    2.6300
    2.6400    2.6500    2.6600    2.6700    2.6800    2.6900    2.7000    2.7100
    2.7200    2.7300    2.7400    2.7500    2.7600    2.7700    2.7800    2.7900
    2.8000    2.8100    2.8200    2.8300    2.8400    2.8500    2.8600    2.8700
    2.8800    2.8900    2.9000    2.9100    2.9200    2.9300    2.9400    2.9500
    2.9600    2.9700    2.9800    2.9900    3.0000    3.0100    3.0200    3.0300
    3.0400    3.0500    3.0600    3.0700    3.0800    3.0900    3.1000    3.1100
    3.1200    3.1300    3.1400    3.1500    3.1600    3.1700    3.1800    3.1900
    3.2000    3.2100    3.2200    3.2300    3.2400    3.2500    3.2600    3.2700
    3.2800    3.2900    3.3000    3.3100    3.3200    3.3300    3.3400    3.3500
    3.3600    3.3700    3.3800    3.3900    3.4000    3.4100    3.4200    3.4300
    3.4400    3.4500    3.4600    3.4700    3.4800    3.4900    3.5000    3.5100
    3.5200    3.5300    3.5400    3.5500    3.5600    3.5700    3.5800    3.5900
    3.6000    3.6100    3.6200    3.6300    3.6400    3.6500    3.6600    3.6700
    3.6800    3.6900    3.7000    3.7100    3.7200    3.7300    3.7400    3.7500
    3.7600    3.7700    3.7800    3.7900    3.8000    3.8100    3.8200    3.8300
    3.8400    3.8500    3.8600    3.8700    3.8800    3.8900    3.9000    3.9100
    3.9200    3.9300    3.9400    3.9500    3.9600    3.9700    3.9800    3.9900
    4.0000    4.0100    4.0200    4.0300    4.0400    4.0500    4.0600    4.0700
    4.0800    4.0900    4.1000    4.1100    4.1200    4.1300    4.1400    4.1500
    4.1600    4.1700    4.1800    4.1900    4.2000    4.2100    4.2200    4.2300
    4.2400    4.2500    4.2600    4.2700    4.2800    4.2900    4.3000    4.3100
    4.3200    4.3300    4.3400    4.3500    4.3600    4.3700    4.3800    4.3900
    4.4000    4.4100    4.4200    4.4300    4.4400    4.4500    4.4600    4.4700
    4.4800    4.4900    4.5000    4.5100    4.5200    4.5300    4.5400    4.5500
    4.5600    4.5700    4.5800    4.5900    4.6000    4.6100    4.6200    4.6300
    4.6400    4.6500    4.6600    4.6700    4.6800    4.6900    4.7000    4.7100
    4.7200    4.7300    4.7400    4.7500    4.7600    4.7700    4.7800    4.7900
    4.8000    4.8100    4.8200    4.8300    4.8400    4.8500    4.8600    4.8700
    4.8800    4.8900    4.9000    4.9100    4.9200    4.9300    4.9400    4.9500
    4.9600    4.9700    4.9800    4.9900    5.0000    5.0100    5.0200    5.0300
    5.0400    5.0500    5.0600    5.0700    5.0800    5.0900    5.1000    5.1100
    5.1200    5.1300    5.1400    5.1500    5.1600    5.1700    5.1800    5.1900
    5.2000    5.2100    5.2200    5.2300    5.2400    5.2500    5.2600    5.2700
    5.2800    5.2900    5.3000    5.3100    5.3200    5.3300    5.3400    5.3500
    5.3600    5.3700    5.3800    5.3900    5.4000    5.4100    5.4200    5.4300
    5.4400    5.4500    5.4600    5.4700    5.4800    5.4900    5.5000    5.5100
    5.5200    5.5300    5.5400    5.5500    5.5600    5.5700    5.5800    5.5900
    5.6000    5.6100    5.6200    5.6300    5.6400    5.6500    5.6600    5.6700
    5.6800    5.6900    5.7000    5.7100    5.7200    5.7300    5.7400    5.7500
    5.7600    5.7700    5.7800    5.7900    5.8000    5.8100    5.8200    5.8300
    5.8400    5.8500    5.8600    5.8700    5.8800    5.8900    5.9000    5.9100
    5.9200    5.9300    5.9400    5.9500    5.9600    5.9700    5.9800    5.9900
    6.0000    6.0100
   </PP_R>
   <PP_RAB type="real"  size=" 602" columns="8">
    0.0100    0.0100    0.0100    0.0100    0.0100    0.0100    0.0100    0.0100
    0.0100    0.0100    0.0100    0.0100    0.0100    0.0100    0.0100    0.0100
    0.0100    0.0100    0.0100    0.0100    0.0100    0.0100    0.0100    0.0100
    0.0100    0.0100    0.0100    0.0100    0.0100    0.0100    0.0100    0.0100
    0.0100    0.0100    0.0100    0.0100    0.0100    0.0100    0.0100    0.0100
    0.0100    0.0100    0.0100    0.0100    0.0100    0.0100    0.0100    0.0100
    0.0100    0.0100    0.0100    0.0100    0.0100    0.0100    0.0100    0.0100
    0.0100    0.0100    0.0100    0.0100    0.0100    0.0100    0.0100    0.0100
    0.0100    0.0100    0.0100    0.0100    0.0100    0.0100    0.0100    0.0100
    0.0100    0.0100    0.0100    0.0100    0.0100    0.0100    0.0100    0.0100
    0.0100    0.0100    0.0100    0.0100    0.0100    0.0100    0.0100    0.0100
    0.0100    0.0100    0.0100    0.0100    0.0100    0.0100    0.0100    0.0100
    0.0100    0.0100    0.0100    0.0100    0.0100    0.0100    0.0100    0.0100
    0.0100    0.0100    0.0100    0.0100    0.0100    0.0100    0.0100    0.0100
    0.0100    0.0100    0.0100    0.0100    0.0100    0.0100    0.0100    0.0100
    0.0100    0.0100    0.0100    0.0100    0.0100    0.0100    0.0100    0.0100
    0.0100    0.0100    0.0100    0.0100    0.0100    0.0100    0.0100    0.0100
    0.0100    0.0100    0.0100    0.0100    0.0100    0.0100    0.0100    0.0100
    0.0100    0.0100    0.0100    0.0100    0.0100    0.0100    0.0100    0.0100
    0.0100    0.0100    0.0100    0.0100    0.0100    0.0100    0.0100    0.0100
    0.0100    0.0100    0.0100    0.0100    0.0100    0.0100    0.0100    0.0100
    0.0100    0.0100    0.0100    0.0100    0.0100    0.0100    0.0100    0.0100
    0.0100    0.0100    0.0100    0.0100    0.0100    0.0100    0.0100    0.0100
    0.0100    0.0100    0.0100    0.0100    0.0100    0.0100    0.0100    0.0100
    0.0100    0.0100    0.0100    0.0100    0.0100    0.0100    0.0100    0.0100
    0.0100    0.0100    0.0100    0.0100    0.0100    0.0100    0.0100    0.0100
    0.0100    0.0100    0.0100    0.0100    0.0100    0.0100    0.0100    0.0100
    0.0100    0.0100    0.0100    0.0100    0.0100    0.0100    0.0100    0.0100
    0.0100    0.0100    0.0100    0.0100    0.0100    0.0100    0.0100    0.0100
    0.0100    0.0100    0.0100    0.0100    0.0100    0.0100    0.0100    0.0100
    0.0100    0.0100    0.0100    0.0100    0.0100    0.0100    0.0100    0.0100
    0.0100    0.0100    0.0100    0.0100    0.0100    0.0100    0.0100    0.0100
    0.0100    0.0100    0.0100    0.0100    0.0100    0.0100    0.0100    0.0100
    0.0100    0.0100    0.0100    0.0100    0.0100    0.0100    0.0100    0.0100
    0.0100    0.0100    0.0100    0.0100    0.0100    0.0100    0.0100    0.0100
    0.0100    0.0100    0.0100    0.0100    0.0100    0.0100    0.0100    0.0100
    0.0100    0.0100    0.0100    0.0100    0.0100    0.0100    0.0100    0.0100
    0.0100    0.0100    0.0100    0.0100    0.0100    0.0100    0.0100    0.0100
    0.0100    0.0100    0.0100    0.0100    0.0100    0.0100    0.0100    0.0100
    0.0100    0.0100    0.0100    0.0100    0.0100    0.0100    0.0100    0.0100
    0.0100    0.0100    0.0100    0.0100    0.0100    0.0100    0.0100    0.0100
    0.0100    0.0100    0.0100    0.0100    0.0100    0.0100    0.0100    0.0100
    0.0100    0.0100    0.0100    0.0100    0.0100    0.0100    0.0100    0.0100
    0.0100    0.0100    0.0100    0.0100    0.0100    0.0100    0.0100    0.0100
    0.0100    0.0100    0.0100    0.0100    0.0100    0.0100    0.0100    0.0100
    0.0100    0.0100    0.0100    0.0100    0.0100    0.0100    0.0100    0.0100
    0.0100    0.0100    0.0100    0.0100    0.0100    0.0100    0.0100    0.0100
    0.0100    0.0100    0.0100    0.0100    0.0100    0.0100    0.0100    0.0100
    0.0100    0.0100    0.0100    0.0100    0.0100    0.0100    0.0100    0.0100
    0.0100    0.0100    0.0100    0.0100    0.0100    0.0100    0.0100    0.0100
    0.0100    0.0100    0.0100    0.0100    0.0100    0.0100    0.0100    0.0100
    0.0100    0.0100    0.0100    0.0100    0.0100    0.0100    0.0100    0.0100
    0.0100    0.0100    0.0100    0.0100    0.0100    0.0100    0.0100    0.0100
    0.0100    0.0100    0.0100    0.0100    0.0100    0.0100    0.0100    0.0100
    0.0100    0.0100    0.0100    0.0100    0.0100    0.0100    0.0100    0.0100
    0.0100    0.0100    0.0100    0.0100    0.0100    0.0100    0.0100    0.0100
    0.0100    0.0100    0.0100    0.0100    0.0100    0.0100    0.0100    0.0100
    0.0100    0.0100    0.0100    0.0100    0.0100    0.0100    0.0100    0.0100
    0.0100    0.0100    0.0100    0.0100    0.0100    0.0100    0.0100    0.0100
    0.0100    0.0100    0.0100    0.0100    0.0100    0.0100    0.0100    0.0100
    0.0100    0.0100    0.0100    0.0100    0.0100    0.0100    0.0100    0.0100
    0.0100    0.0100    0.0100    0.0100    0.0100    0.0100    0.0100    0.0100
    0.0100    0.0100    0.0100    0.0100    0.0100    0.0100    0.0100    0.0100
    0.0100    0.0100    0.0100    0.0100    0.0100    0.0100    0.0100    0.0100
    0.0100    0.0100    0.0100    0.0100    0.0100    0.0100    0.0100    0.0100
    0.0100    0.0100    0.0100    0.0100    0.0100    0.0100    0.0100    0.0100
    0.0100    0.0100    0.0100    0.0100    0.0100    0.0100    0.0100    0.0100
    0.0100    0.0100    0.0100    0.0100    0.0100    0.0100    0.0100    0.0100
    0.0100    0.0100    0.0100    0.0100    0.0100    0.0100    0.0100    0.0100
    0.0100    0.0100    0.0100    0.0100    0.0100    0.0100    0.0100    0.0100
    0.0100    0.0100    0.0100    0.0100    0.0100    0.0100    0.0100    0.0100
    0.0100    0.0100    0.0100    0.0100    0.0100    0.0100    0.0100    0.0100
    0.0100    0.0100    0.0100    0.0100    0.0100    0.0100    0.0100    0.0100
    0.0100    0.0100    0.0100    0.0100    0.0100    0.0100    0.0100    0.0100
    0.0100    0.0100    0.0100    0.0100    0.0100    0.0100    0.0100    0.0100
    0.0100    0.0100
   </PP_RAB>
 </PP_MESH>
  <PP_LOCAL type="real"  size=" 602" columns="4">
   -6.0298209715E+01   -6.0303310178E+01   -6.0321942401E+01   -6.0346934262E+01
   -6.0371113639E+01   -6.0387333036E+01   -6.0389810107E+01   -6.0374729086E+01
   -6.0340206128E+01   -6.0285891289E+01   -6.0212462753E+01   -6.0121171700E+01
   -6.0013501856E+01   -5.9890948020E+01   -5.9754891124E+01   -5.9606541214E+01
   -5.9446923342E+01   -5.9276887578E+01   -5.9097130717E+01   -5.8908221802E+01
   -5.8710627177E+01   -5.8504732785E+01   -5.8290862978E+01   -5.8069295687E+01
   -5.7840274309E+01   -5.7604016760E+01   -5.7360722299E+01   -5.7110576491E+01
   -5.6853754851E+01   -5.6590425440E+01   -5.6320750715E+01   -5.6044888860E+01
   -5.5762994731E+01   -5.5475220540E+01   -5.5181716381E+01   -5.4882630609E+01
   -5.4578110164E+01   -5.4268300810E+01   -5.3953347354E+01   -5.3633393822E+01
   -5.3308583601E+01   -5.2979059572E+01   -5.2644964212E+01   -5.2306439681E+01
   -5.1963627899E+01   -5.1616670601E+01   -5.1265709396E+01   -5.0910885820E+01
   -5.0552341388E+01   -5.0190217656E+01   -4.9824656298E+01   -4.9455799189E+01
   -4.9083788530E+01   -4.8708766973E+01   -4.8330877779E+01   -4.7950265029E+01
   -4.7567073795E+01   -4.7181450444E+01   -4.6793542805E+01   -4.6403500555E+01
   -4.6011475368E+01   -4.5617621323E+01   -4.5222095086E+01   -4.4825056148E+01
   -4.4426667172E+01   -4.4027094030E+01   -4.3626505952E+01   -4.3225075762E+01
   -4.2822979731E+01   -4.2420397572E+01   -4.2017512321E+01   -4.1614510262E+01
   -4.1211580546E+01   -4.0808914928E+01   -4.0406707400E+01   -4.0005153773E+01
   -3.9604451219E+01   -3.9204797791E+01   -3.8806391868E+01   -3.8409431637E+01
   -3.8014114546E+01   -3.7620636760E+01   -3.7229192627E+01   -3.6839974146E+01
   -3.6453170468E+01   -3.6068967406E+01   -3.5687546977E+01   -3.5309086965E+01
   -3.4933760514E+01   -3.4561735742E+01   -3.4193175386E+01   -3.3828236468E+01
   -3.3467069981E+01   -3.3109820594E+01   -3.2756626455E+01   -3.2407618854E+01
   -3.2062921767E+01   -3.1722651916E+01   -3.1386918422E+01   -3.1055822572E+01
   -3.0729457599E+01   -3.0407908517E+01   -3.0091252220E+01   -2.9779555935E+01
   -2.9472878297E+01   -2.9171268723E+01   -2.8874767177E+01   -2.8583404764E+01
   -2.8297201154E+01   -2.8016166126E+01   -2.7740299124E+01   -2.7469589505E+01
   -2.7204015261E+01   -2.6943541753E+01   -2.6688123518E+01   -2.6437704345E+01
   -2.6192214852E+01   -2.5951571768E+01   -2.5715680069E+01   -2.5484434206E+01
   -2.5257709359E+01   -2.5035378382E+01   -2.4817312075E+01   -2.4603387450E+01
   -2.4393486549E+01   -2.4187494620E+01   -2.3985301456E+01   -2.3786801428E+01
   -2.3591891273E+01   -2.3400471667E+01   -2.3212447225E+01   -2.3027724285E+01
   -2.2846213092E+01   -2.2667826880E+01   -2.2492480122E+01   -2.2320091653E+01
   -2.2150581869E+01   -2.1983872923E+01   -2.1819890884E+01   -2.1658562338E+01
   -2.1499817080E+01   -2.1343586999E+01   -2.1189804788E+01   -2.1038407150E+01
   -2.0889330767E+01   -2.0742515585E+01   -2.0597902971E+01   -2.0455435562E+01
   -2.0315059314E+01   -2.0176719646E+01   -2.0040366398E+01   -1.9905948845E+01
   -1.9773419464E+01   -1.9642731611E+01   -1.9513840326E+01   -1.9386702860E+01
   -1.9261276756E+01   -1.9137522912E+01   -1.9015401350E+01   -1.8894876266E+01
   -1.8775910328E+01   -1.8658470465E+01   -1.8542522214E+01   -1.8428034770E+01
   -1.8314976396E+01   -1.8203318421E+01   -1.8093031556E+01   -1.7984089128E+01
   -1.7876464004E+01   -1.7770131350E+01   -1.7665065897E+01   -1.7561244472E+01
   -1.7458643385E+01   -1.7357240917E+01   -1.7257014697E+01   -1.7157944217E+01
   -1.7060008181E+01   -1.6963187070E+01   -1.6867460363E+01   -1.6772809575E+01
   -1.6679214929E+01   -1.6586659204E+01   -1.6495124033E+01   -1.6404593196E+01
   -1.6315050216E+01   -1.6226479415E+01   -1.6138865494E+01   -1.6052193238E+01
   -1.5966448307E+01   -1.5881615833E+01   -1.5797682504E+01   -1.5714634103E+01
   -1.5632457772E+01   -1.5551140132E+01   -1.5470668480E+01   -1.5391030287E+01
   -1.5312212977E+01   -1.5234204746E+01   -1.5156993189E+01   -1.5080566940E+01
   -1.5004914185E+01   -1.4930023510E+01   -1.4855883615E+01   -1.4782483073E+01
   -1.4709811055E+01   -1.4637856234E+01   -1.4566608103E+01   -1.4496055935E+01
   -1.4426189137E+01   -1.4356997987E+01   -1.4288471930E+01   -1.4220601831E+01
   -1.4153378186E+01   -1.4086791577E+01   -1.4020833208E+01   -1.3955493671E+01
   -1.3890764540E+01   -1.3826637190E+01   -1.3763102907E+01   -1.3700153807E+01
   -1.3637781424E+01   -1.3575977919E+01   -1.3514735635E+01   -1.3454046399E+01
   -1.3393903143E+01   -1.3334298284E+01   -1.3275224388E+01   -1.3216674631E+01
   -1.3158641677E+01   -1.3101118768E+01   -1.3044099301E+01   -1.2987576199E+01
   -1.2931543308E+01   -1.2875994173E+01   -1.2820922179E+01   -1.2766321509E+01
   -1.2712185906E+01   -1.2658509267E+01   -1.2605285996E+01   -1.2552510074E+01
   -1.2500175851E+01   -1.2448277949E+01   -1.2396810589E+01   -1.2345768519E+01
   -1.2295146577E+01   -1.2244939223E+01   -1.2195141555E+01   -1.2145748623E+01
   -1.2096755127E+01   -1.2048156465E+01   -1.1999947903E+01   -1.1952124379E+01
   -1.1904681544E+01   -1.1857614881E+01   -1.1810919565E+01   -1.1764591459E+01
   -1.1718626264E+01   -1.1673019388E+01   -1.1627766870E+01   -1.1582864629E+01
   -1.1538308305E+01   -1.1494094074E+01   -1.1450218075E+01   -1.1406676179E+01
   -1.1363464667E+01   -1.1320579896E+01   -1.1278017970E+01   -1.1235775240E+01
   -1.1193848281E+01   -1.1152233431E+01   -1.1110927084E+01   -1.1069926029E+01
   -1.1029226838E+01   -1.0988825923E+01   -1.0948720283E+01   -1.0908906681E+01
   -1.0869381662E+01   -1.0830142292E+01   -1.0791185530E+01   -1.0752508152E+01
   -1.0714107172E+01   -1.0675979774E+01   -1.0638122970E+01   -1.0600533701E+01
   -1.0563209367E+01   -1.0526147170E+01   -1.0489344114E+01   -1.0452797657E+01
   -1.0416505179E+01   -1.0380463917E+01   -1.0344671204E+01   -1.0309124644E+01
   -1.0273821697E+01   -1.0238759613E+01   -1.0203936152E+01   -1.0169348911E+01
   -1.0134995370E+01   -1.0100873122E+01   -1.0066979990E+01   -1.0033313667E+01
   -9.9998716570E+00   -9.9666519071E+00   -9.9336522467E+00   -9.9008704122E+00
   -9.8683041447E+00   -9.8359515010E+00   -9.8038103853E+00   -9.7718785626E+00
   -9.7401540649E+00   -9.7086349689E+00   -9.6773192771E+00   -9.6462047967E+00
   -9.6152898112E+00   -9.5845724209E+00   -9.5540506677E+00   -9.5237225758E+00
   -9.4935864777E+00   -9.4636405585E+00   -9.4338829043E+00   -9.4043117392E+00
   -9.3749254338E+00   -9.3457222580E+00   -9.3167003500E+00   -9.2878581036E+00
   -9.2591939317E+00   -9.2307061848E+00   -9.2023930607E+00   -9.1742530930E+00
   -9.1462847427E+00   -9.1184864376E+00   -9.0908564399E+00   -9.0633933963E+00
   -9.0360958219E+00   -9.0089622178E+00   -8.9819909157E+00   -8.9551806499E+00
   -8.9285299956E+00   -8.9020375242E+00   -8.8757016403E+00   -8.8495211430E+00
   -8.8234946734E+00   -8.7976208693E+00   -8.7718982127E+00   -8.7463255451E+00
   -8.7209015791E+00   -8.6956250161E+00   -8.6704944187E+00   -8.6455086511E+00
   -8.6206665017E+00   -8.5959667326E+00   -8.5714079915E+00   -8.5469891452E+00
   -8.5227090628E+00   -8.4985665640E+00   -8.4745603864E+00   -8.4506893809E+00
   -8.4269525007E+00   -8.4033486207E+00   -8.3798765729E+00   -8.3565351756E+00
   -8.3333234686E+00   -8.3102403794E+00   -8.2872848351E+00   -8.2644556186E+00
   -8.2417518460E+00   -8.2191724984E+00   -8.1967165528E+00   -8.1743828925E+00
   -8.1521705631E+00   -8.1300786446E+00   -8.1081061622E+00   -8.0862521057E+00
   -8.0645154356E+00   -8.0428953318E+00   -8.0213908646E+00   -8.0000011045E+00
   -7.9787250114E+00   -7.9575617687E+00   -7.9365105210E+00   -7.9155703819E+00
   -7.8947404251E+00   -7.8740197172E+00   -7.8534075114E+00   -7.8329029627E+00
   -7.8125052262E+00   -7.7922133588E+00   -7.7720266042E+00   -7.7519441942E+00
   -7.7319653231E+00   -7.7120891695E+00   -7.6923148330E+00   -7.6726416598E+00
   -7.6530688818E+00   -7.6335957309E+00   -7.6142213803E+00   -7.5949450650E+00
   -7.5757661237E+00   -7.5566838242E+00   -7.5376974341E+00   -7.5188061299E+00
   -7.5000092598E+00   -7.4813061605E+00   -7.4626961339E+00   -7.4441784817E+00
   -7.4257523912E+00   -7.4074173024E+00   -7.3891725563E+00   -7.3710174869E+00
   -7.3529514151E+00   -7.3349735869E+00   -7.3170834724E+00   -7.2992804368E+00
   -7.2815638456E+00   -7.2639330381E+00   -7.2463873205E+00   -7.2289261785E+00
   -7.2115490071E+00   -7.1942552011E+00   -7.1770441247E+00   -7.1599151265E+00
   -7.1428677134E+00   -7.1259013085E+00   -7.1090153347E+00   -7.0922091867E+00
   -7.0754822390E+00   -7.0588340246E+00   -7.0422639937E+00   -7.0257715959E+00
   -7.0093562616E+00   -6.9930173756E+00   -6.9767545022E+00   -6.9605671171E+00
   -6.9444546956E+00   -6.9284167086E+00   -6.9124525370E+00   -6.8965617808E+00
   -6.8807439397E+00   -6.8649985140E+00   -6.8493250033E+00   -6.8337228201E+00
   -6.8181915551E+00   -6.8027307478E+00   -6.7873399212E+00   -6.7720185987E+00
   -6.7567662431E+00   -6.7415824085E+00   -6.7264666825E+00   -6.7114186106E+00
   -6.6964377382E+00   -6.6815235834E+00   -6.6666756520E+00   -6.6518935827E+00
   -6.6371769423E+00   -6.6225252973E+00   -6.6079382142E+00   -6.5934151746E+00
   -6.5789558364E+00   -6.5645597975E+00   -6.5502266448E+00   -6.5359559651E+00
   -6.5217473035E+00   -6.5076002426E+00   -6.4935144422E+00   -6.4794895084E+00
   -6.4655250472E+00   -6.4516206647E+00   -6.4377758823E+00   -6.4239903996E+00
   -6.4102638484E+00   -6.3965958532E+00   -6.3829860382E+00   -6.3694339967E+00
   -6.3559393301E+00   -6.3425017399E+00   -6.3291208679E+00   -6.3157963562E+00
   -6.3025278465E+00   -6.2893149194E+00   -6.2761572616E+00   -6.2630545594E+00
   -6.2500064712E+00   -6.2370126555E+00   -6.2240727709E+00   -6.2111863927E+00
   -6.1983532758E+00   -6.1855730967E+00   -6.1728455298E+00   -6.1601702497E+00
   -6.1475469142E+00   -6.1349751492E+00   -6.1224547120E+00   -6.1099852922E+00
   -6.0975665793E+00   -6.0851982631E+00   -6.0728800048E+00   -6.0606114724E+00
   -6.0483924244E+00   -6.0362225650E+00   -6.0241015981E+00   -6.0120292279E+00
   -6.0000051247E+00   -5.9880289844E+00   -5.9761005721E+00   -5.9642196057E+00
   -5.9523858031E+00   -5.9405988820E+00   -5.9288585271E+00   -5.9171644489E+00
   -5.9055164241E+00   -5.8939141839E+00   -5.8823574591E+00   -5.8708459808E+00
   -5.8593794527E+00   -5.8479575873E+00   -5.8365801781E+00   -5.8252469685E+00
   -5.8139577021E+00   -5.8027121224E+00   -5.7915099568E+00   -5.7803509084E+00
   -5.7692347915E+00   -5.7581613616E+00   -5.7471303741E+00   -5.7361415845E+00
   -5.7251947483E+00   -5.7142895486E+00   -5.7034258242E+00   -5.6926033422E+00
   -5.6818218694E+00   -5.6710811726E+00   -5.6603810187E+00   -5.6497211237E+00
   -5.6391012919E+00   -5.6285213219E+00   -5.6179809916E+00   -5.6074800785E+00
   -5.5970183605E+00   -5.5865955907E+00   -5.5762115291E+00   -5.5658660094E+00
   -5.5555588197E+00   -5.5452897482E+00   -5.5350585827E+00   -5.5248651116E+00
   -5.5147090612E+00   -5.5045902837E+00   -5.4945085832E+00   -5.4844637578E+00
   -5.4744556054E+00   -5.4644839240E+00   -5.4545484853E+00   -5.4446490762E+00
   -5.4347855449E+00   -5.4249576986E+00   -5.4151653448E+00   -5.4054082908E+00
   -5.3956863441E+00   -5.3859992602E+00   -5.3763468917E+00   -5.3667290685E+00
   -5.3571456068E+00   -5.3475963230E+00   -5.3380810335E+00   -5.3285995468E+00
   -5.3191516324E+00   -5.3097371707E+00   -5.3003559865E+00   -5.2910079049E+00
   -5.2816927506E+00   -5.2724103486E+00   -5.2631605009E+00   -5.2539430186E+00
   -5.2447577744E+00   -5.2356046011E+00   -5.2264833319E+00   -5.2173937998E+00
   -5.2083358379E+00   -5.1993092469E+00   -5.1903138676E+00   -5.1813495694E+00
   -5.1724161931E+00   -5.1635135796E+00   -5.1546415697E+00   -5.1458000042E+00
   -5.1369886877E+00   -5.1282074785E+00   -5.1194562482E+00   -5.1107348448E+00
   -5.1020431167E+00   -5.0933809122E+00   -5.0847480794E+00   -5.0761444311E+00
   -5.0675698327E+00   -5.0590241621E+00   -5.0505072746E+00   -5.0420190256E+00
   -5.0335592703E+00   -5.0251278641E+00   -5.0167246324E+00   -5.0083494369E+00
   -5.0000021667E+00   -4.9916826838E+00
  </PP_LOCAL>
 <PP_NONLOCAL>
   <PP_BETA.1
       type="real"
       size=" 602"
       columns="4"
       index="1"
       angular_momentum="0"
       cutoff_radius_index=" 266"
       cutoff_radius="    2.6500000000E+00" >
    0.0000000000E+00   -5.1964446692E-02   -1.0388175132E-01   -1.5570463674E-01
   -2.0738555737E-01   -2.5887656928E-01   -3.1012920552E-01   -3.6109435815E-01
   -4.1172216879E-01   -4.6196192912E-01   -5.1176199292E-01   -5.6106970085E-01
   -6.0983131955E-01   -6.5799199602E-01   -7.0549572851E-01   -7.5228535489E-01
   -7.9830255921E-01   -8.4348789734E-01   -8.8778084211E-01   -9.3111984845E-01
   -9.7344243864E-01   -1.0146853081E+00   -1.0547844512E+00   -1.0936753074E+00
   -1.1312929264E+00   -1.1675721538E+00   -1.2024478332E+00   -1.2358550275E+00
   -1.2677292562E+00   -1.2980067477E+00   -1.3266247058E+00   -1.3535215891E+00
   -1.3786373997E+00   -1.4019139867E+00   -1.4232953472E+00   -1.4427279437E+00
   -1.4601610150E+00   -1.4755469006E+00   -1.4888413487E+00   -1.5000038323E+00
   -1.5089978635E+00   -1.5157912868E+00   -1.5203565723E+00   -1.5226710946E+00
   -1.5227173978E+00   -1.5204834432E+00   -1.5159628386E+00   -1.5091550411E+00
   -1.5000655565E+00   -1.4887060941E+00   -1.4750946980E+00   -1.4592558414E+00
   -1.4412205460E+00   -1.4210263888E+00   -1.3987175182E+00   -1.3743446792E+00
   -1.3479650926E+00   -1.3196424482E+00   -1.2894467073E+00   -1.2574540178E+00
   -1.2237464702E+00   -1.1884119099E+00   -1.1515436629E+00   -1.1132402594E+00
   -1.0736050911E+00   -1.0327460817E+00   -9.9077532258E-01   -9.4780859536E-01
   -9.0396500373E-01   -8.5936651058E-01   -8.1413747609E-01   -7.6840406026E-01
   -7.2229381946E-01   -6.7593514899E-01   -6.2945674722E-01   -5.8298708711E-01
   -5.3665387083E-01   -4.9058338322E-01   -4.4490007023E-01   -3.9972595486E-01
   -3.5518010471E-01   -3.1137811125E-01   -2.6843158430E-01   -2.2644766456E-01
   -1.8552855746E-01   -1.4577109117E-01   -1.0726630174E-01   -7.0099047953E-02
   -3.4347658581E-02   -8.3614468834E-05    3.2628732344E-02    6.3732400348E-02
    9.3177979328E-02    1.2092378856E-01    1.4693592927E-01    1.7118843678E-01
    1.9366344250E-01    2.1435090507E-01    2.3324863652E-01    2.5036218629E-01
    2.6570467928E-01    2.7929658696E-01    2.9116540218E-01    3.0134580234E-01
    3.0987876372E-01    3.1681136755E-01    3.2219638625E-01    3.2609182652E-01
    3.2856061683E-01    3.2966979859E-01    3.2949006618E-01    3.2809533247E-01
    3.2556209230E-01    3.2196840248E-01    3.1739360820E-01    3.1191799922E-01
    3.0562158076E-01    2.9858296466E-01    2.9087955165E-01    2.8258779195E-01
    2.7377897123E-01    2.6452257287E-01    2.5488641244E-01    2.4493545344E-01
    2.3473203635E-01    2.2433722850E-01    2.1380910482E-01    2.0320202470E-01
    1.9256903720E-01    1.8195968330E-01    1.7141944376E-01    1.6099261630E-01