<UPF version="2.0.1">
  <PP_INFO>

 This pseudopotential file has been produced using the code
 ONCVPSP  (Optimized Norm-Conservinng Vanderbilt PSeudopotential)
 scalar-relativistic version 2.1.1, 03/26/2014 by D. R. Hamann
 The code is available through a link at URL www.mat-simresearch.com.
 Documentation with the package provides a full discription of the
 input data below.


 While it is not required under the terms of the GNU GPL, it is
 suggested that you cite D. R. Hamann, Phys. Rev. B 88, 085117 (2013)
 in any publication using these pseudopotentials.

    <PP_INPUTFILE>
# ATOM AND REFERENCE CONFIGURATION
# atsym  z    nc    nv    iexc   psfile
  Si 14.00     3     2     4      upf
#
#   n    l    f        energy (Ha)
    1    0    2.00
    2    0    2.00
    2    1    6.00
    3    0    2.00
    3    1    2.00
#
# PSEUDOPOTENTIAL AND OPTIMIZATION
# lmax
    1
#
#   l,   rc,     ep,   ncon, nbas, qcut
    0   2.40480  -0.39736    5    8   5.11281
    1   3.56481  -0.14998    5    8   3.50314
#
# LOCAL POTENTIAL
# lloc, lpopt,  rc(5),   dvloc0
    4    5   1.27795      0.00000
#
# VANDERBILT-KLEINMAN-BYLANDER PROJECTORs
# l, nproj, debl
    0    2   0.56800
    1    2   1.00881
#
# MODEL CORE CHARGE
# icmod, fcfact
    0   0.00000
#
# LOG DERIVATIVE ANALYSIS
# epsh1, epsh2, depsh
   -5.00    3.00    0.02
#
# OUTPUT GRID
# rlmax, drl
    6.00    0.01
#
# TEST CONFIGURATIONS
# ncnf
    0
# nvcnf
#   n    l    f
    </PP_INPUTFILE>
  </PP_INFO>
  <!--                               -->
  <!-- END OF HUMAN READABLE SECTION -->
  <!--                               -->
    <PP_HEADER
       generated="Generated using ONCVPSP code by D. R. Hamann"
       author="anonymous"
       date="241015"
       comment=""
       element="Si"
       pseudo_type="NC"
       relativistic="scalar"
       is_ultrasoft="F"
       is_paw="F"
       is_coulomb="F"
       has_so="F"
       has_wfc="F"
       has_gipaw="T"
       core_correction="F"
       functional="PBE"
       z_valence="    4.00"
       total_psenergy="  -3.74332968930E+00"
       rho_cutoff="   6.01000000000E+00"
       l_max="1"
       l_local="-1"
       mesh_size="   602"
       number_of_wfc="0"
       number_of_proj="4"/>
 <PP_MESH>
   <PP_R type="real"  size=" 602" columns="8">
    0.0000    0.0100    0.0200    0.0300    0.0400    0.0500    0.0600    0.0700
    0.0800    0.0900    0.1000    0.1100    0.1200    0.1300    0.1400    0.1500
    0.1600    0.1700    0.1800    0.1900    0.2000    0.2100    0.2200    0.2300
    0.2400    0.2500    0.2600    0.2700    0.2800    0.2900    0.3000    0.3100
    0.3200    0.3300    0.3400    0.3500    0.3600    0.3700    0.3800    0.3900
    0.4000    0.4100    0.4200    0.4300    0.4400    0.4500    0.4600    0.4700
    0.4800    0.4900    0.5000    0.5100    0.5200    0.5300    0.5400    0.5500
    0.5600    0.5700    0.5800    0.5900    0.6000    0.6100    0.6200    0.6300
    0.6400    0.6500    0.6600    0.6700    0.6800    0.6900    0.7000    0.7100
    0.7200    0.7300    0.7400    0.7500    0.7600    0.7700    0.7800    0.7900
    0.8000    0.8100    0.8200    0.8300    0.8400    0.8500    0.8600    0.8700
    0.8800    0.8900    0.9000    0.9100    0.9200    0.9300    0.9400    0.9500
    0.9600    0.9700    0.9800    0.9900    1.0000    1.0100    1.0200    1.0300
    1.0400    1.0500    1.0600    1.0700    1.0800    1.0900    1.1000    1.1100
    1.1200    1.1300    1.1400    1.1500    1.1600    1.1700    1.1800    1.1900
    1.2000    1.2100    1.2200    1.2300    1.2400    1.2500    1.2600    1.2700
    1.2800    1.2900    1.3000    1.3100    1.3200    1.3300    1.3400    1.3500
    1.3600    1.3700    1.3800    1.3900    1.4000    1.4100    1.4200    1.4300
    1.4400    1.4500    1.4600    1.4700    1.4800    1.4900    1.5000    1.5100
    1.5200    1.5300    1.5400    1.5500    1.5600    1.5700    1.5800    1.5900
    1.6000    1.6100    1.6200    1.6300    1.6400    1.6500    1.6600    1.6700
    1.6800    1.6900    1.7000    1.7100    1.7200    1.7300    1.7400    1.7500
    1.7600    1.7700    1.7800    1.7900    1.8000    1.8100    1.8200    1.8300
    1.8400    1.8500    1.8600    1.8700    1.8800    1.8900    1.9000    1.9100
    1.9200    1.9300    1.9400    1.9500    1.9600    1.9700    1.9800    1.9900
    2.0000    2.0100    2.0200    2.0300    2.0400    2.0500    2.0600    2.0700
    2.0800    2.0900    2.1000    2.1100    2.1200    2.1300    2.1400    2.1500
    2.1600    2.1700    2.1800    2.1900    2.2000    2.2100    2.2200    2.2300
    2.2400    2.2500    2.2600    2.2700    2.2800    2.2900    2.3000    2.3100
    2.3200    2.3300    2.3400    2.3500    2.3600    2.3700    2.3800    2.3900
    2.4000    2.4100    2.4200    2.4300    2.4400    2.4500    2.4600    2.4700
    2.4800    2.4900    2.5000    2.5100    2.5200    2.5300    2.5400    2.5500
    2.5600    2.5700    2.5800    2.5900    2.6000    2.6100    2.6200    2.6300
    2.6400    2.6500    2.6600    2.6700    2.6800    2.6900    2.7000    2.7100
    2.7200    2.7300    2.7400    2.7500    2.7600    2.7700    2.7800    2.7900
    2.8000    2.8100    2.8200    2.8300    2.8400    2.8500    2.8600    2.8700
    2.8800    2.8900    2.9000    2.9100    2.9200    2.9300    2.9400    2.9500
    2.9600    2.9700    2.9800    2.9900    3.0000    3.0100    3.0200    3.0300
    3.0400    3.0500    3.0600    3.0700    3.0800    3.0900    3.1000    3.1100
    3.1200    3.1300    3.1400    3.1500    3.1600    3.1700    3.1800    3.1900
    3.2000    3.2100    3.2200    3.2300    3.2400    3.2500    3.2600    3.2700
    3.2800    3.2900    3.3000    3.3100    3.3200    3.3300    3.3400    3.3500
    3.3600    3.3700    3.3800    3.3900    3.4000    3.4100    3.4200    3.4300
    3.4400    3.4500    3.4600    3.4700    3.4800    3.4900    3.5000    3.5100
    3.5200    3.5300    3.5400    3.5500    3.5600    3.5700    3.5800    3.5900
    3.6000    3.6100    3.6200    3.6300    3.6400    3.6500    3.6600    3.6700
    3.6800    3.6900    3.7000    3.7100    3.7200    3.7300    3.7400    3.7500
    3.7600    3.7700    3.7800    3.7900    3.8000    3.8100    3.8200    3.8300
    3.8400    3.8500    3.8600    3.8700    3.8800    3.8900    3.9000    3.9100
    3.9200    3.9300    3.9400    3.9500    3.9600    3.9700    3.9800    3.9900
    4.0000    4.0100    4.0200    4.0300    4.0400    4.0500    4.0600    4.0700
    4.0800    4.0900    4.1000    4.1100    4.1200    4.1300    4.1400    4.1500
    4.1600    4.1700    4.1800    4.1900    4.2000    4.2100    4.2200    4.2300
    4.2400    4.2500    4.2600    4.2700    4.2800    4.2900    4.3000    4.3100
    4.3200    4.3300    4.3400    4.3500    4.3600    4.3700    4.3800    4.3900
    4.4000    4.4100    4.4200    4.4300    4.4400    4.4500    4.4600    4.4700
    4.4800    4.4900    4.5000    4.5100    4.5200    4.5300    4.5400    4.5500
    4.5600    4.5700    4.5800    4.5900    4.6000    4.6100    4.6200    4.6300
    4.6400    4.6500    4.6600    4.6700    4.6800    4.6900    4.7000    4.7100
    4.7200    4.7300    4.7400    4.7500    4.7600    4.7700    4.7800    4.7900
    4.8000    4.8100    4.8200    4.8300    4.8400    4.8500    4.8600    4.8700
    4.8800    4.8900    4.9000    4.9100    4.9200    4.9300    4.9400    4.9500
    4.9600    4.9700    4.9800    4.9900    5.0000    5.0100    5.0200    5.0300
    5.0400    5.0500    5.0600    5.0700    5.0800    5.0900    5.1000    5.1100
    5.1200    5.1300    5.1400    5.1500    5.1600    5.1700    5.1800    5.1900
    5.2000    5.2100    5.2200    5.2300    5.2400    5.2500    5.2600    5.2700
    5.2800    5.2900    5.3000    5.3100    5.3200    5.3300    5.3400    5.3500
    5.3600    5.3700    5.3800    5.3900    5.4000    5.4100    5.4200    5.4300
    5.4400    5.4500    5.4600    5.4700    5.4800    5.4900    5.5000    5.5100
    5.5200    5.5300    5.5400    5.5500    5.5600    5.5700    5.5800    5.5900
    5.6000    5.6100    5.6200    5.6300    5.6400    5.6500    5.6600    5.6700
    5.6800    5.6900    5.7000    5.7100    5.7200    5.7300    5.7400    5.7500
    5.7600    5.7700    5.7800    5.7900    5.8000    5.8100    5.8200    5.8300
    5.8400    5.8500    5.8600    5.8700    5.8800    5.8900    5.9000    5.9100
    5.9200    5.9300    5.9400    5.9500    5.9600    5.9700    5.9800    5.9900
    6.0000    6.0100
   </PP_R>
   <PP_RAB type="real"  size=" 602" columns="8">
    0.0100    0.0100    0.0100    0.0100    0.0100    0.0100    0.0100    0.0100
    0.0100    0.0100    0.0100    0.0100    0.0100    0.0100    0.0100    0.0100
    0.0100    0.0100    0.0100    0.0100    0.0100    0.0100    0.0100    0.0100
    0.0100    0.0100    0.0100    0.0100    0.0100    0.0100    0.0100    0.0100
    0.0100    0.0100    0.0100    0.0100    0.0100    0.0100    0.0100    0.0100
    0.0100    0.0100    0.0100    0.0100    0.0100    0.0100    0.0100    0.0100
    0.0100    0.0100    0.0100    0.0100    0.0100    0.0100    0.0100    0.0100
    0.0100    0.0100    0.0100    0.0100    0.0100    0.0100    0.0100    0.0100
    0.0100    0.0100    0.0100    0.0100    0.0100    0.0100    0.0100    0.0100
    0.0100    0.0100    0.0100    0.0100    0.0100    0.0100    0.0100    0.0100
    0.0100    0.0100    0.0100    0.0100    0.0100    0.0100    0.0100    0.0100
    0.0100    0.0100    0.0100    0.0100    0.0100    0.0100    0.0100    0.0100
    0.0100    0.0100    0.0100    0.0100    0.0100    0.0100    0.0100    0.0100
    0.0100    0.0100    0.0100    0.0100    0.0100    0.0100    0.0100    0.0100
    0.0100    0.0100    0.0100    0.0100    0.0100    0.0100    0.0100    0.0100
    0.0100    0.0100    0.0100    0.0100    0.0100    0.0100    0.0100    0.0100
    0.0100    0.0100    0.0100    0.0100    0.0100    0.0100    0.0100    0.0100
    0.0100    0.0100    0.0100    0.0100    0.0100    0.0100    0.0100    0.0100
    0.0100    0.0100    0.0100    0.0100    0.0100    0.0100    0.0100    0.0100
    0.0100    0.0100    0.0100    0.0100    0.0100    0.0100    0.0100    0.0100
    0.0100    0.0100    0.0100    0.0100    0.0100    0.0100    0.0100    0.0100
    0.0100    0.0100    0.0100    0.0100    0.0100    0.0100    0.0100    0.0100
    0.0100    0.0100    0.0100    0.0100    0.0100    0.0100    0.0100    0.0100
    0.0100    0.0100    0.0100    0.0100    0.0100    0.0100    0.0100    0.0100
    0.0100    0.0100    0.0100    0.0100    0.0100    0.0100    0.0100    0.0100
    0.0100    0.0100    0.0100    0.0100    0.0100    0.0100    0.0100    0.0100
    0.0100    0.0100    0.0100    0.0100    0.0100    0.0100    0.0100    0.0100
    0.0100    0.0100    0.0100    0.0100    0.0100    0.0100    0.0100    0.0100
    0.0100    0.0100    0.0100    0.0100    0.0100    0.0100    0.0100    0.0100
    0.0100    0.0100    0.0100    0.0100    0.0100    0.0100    0.0100    0.0100
    0.0100    0.0100    0.0100    0.0100    0.0100    0.0100    0.0100    0.0100
    0.0100    0.0100    0.0100    0.0100    0.0100    0.0100    0.0100    0.0100
    0.0100    0.0100    0.0100    0.0100    0.0100    0.0100    0.0100    0.0100
    0.0100    0.0100    0.0100    0.0100    0.0100    0.0100    0.0100    0.0100
    0.0100    0.0100    0.0100    0.0100    0.0100    0.0100    0.0100    0.0100
    0.0100    0.0100    0.0100    0.0100    0.0100    0.0100    0.0100    0.0100
    0.0100    0.0100    0.0100    0.0100    0.0100    0.0100    0.0100    0.0100
    0.0100    0.0100    0.0100    0.0100    0.0100    0.0100    0.0100    0.0100
    0.0100    0.0100    0.0100    0.0100    0.0100    0.0100    0.0100    0.0100
    0.0100    0.0100    0.0100    0.0100    0.0100    0.0100    0.0100    0.0100
    0.0100    0.0100    0.0100    0.0100    0.0100    0.0100    0.0100    0.0100
    0.0100    0.0100    0.0100    0.0100    0.0100    0.0100    0.0100    0.0100
    0.0100    0.0100    0.0100    0.0100    0.0100    0.0100    0.0100    0.0100
    0.0100    0.0100    0.0100    0.0100    0.0100    0.0100    0.0100    0.0100
    0.0100    0.0100    0.0100    0.0100    0.0100    0.0100    0.0100    0.0100
    0.0100    0.0100    0.0100    0.0100    0.0100    0.0100    0.0100    0.0100
    0.0100    0.0100    0.0100    0.0100    0.0100    0.0100    0.0100    0.0100
    0.0100    0.0100    0.0100    0.0100    0.0100    0.0100    0.0100    0.0100
    0.0100    0.0100    0.0100    0.0100    0.0100    0.0100    0.0100    0.0100
    0.0100    0.0100    0.0100    0.0100    0.0100    0.0100    0.0100    0.0100
    0.0100    0.0100    0.0100    0.0100    0.0100    0.0100    0.0100    0.0100
    0.0100    0.0100    0.0100    0.0100    0.0100    0.0100    0.0100    0.0100
    0.0100    0.0100    0.0100    0.0100    0.0100    0.0100    0.0100    0.0100
    0.0100    0.0100    0.0100    0.0100    0.0100    0.0100    0.0100    0.0100
    0.0100    0.0100    0.0100    0.0100    0.0100    0.0100    0.0100    0.0100
    0.0100    0.0100    0.0100    0.0100    0.0100    0.0100    0.0100    0.0100
    0.0100    0.0100    0.0100    0.0100    0.0100    0.0100    0.0100    0.0100
    0.0100    0.0100    0.0100    0.0100    0.0100    0.0100    0.0100    0.0100
    0.0100    0.0100    0.0100    0.0100    0.0100    0.0100    0.0100    0.0100
    0.0100    0.0100    0.0100    0.0100    0.0100    0.0100    0.0100    0.0100
    0.0100    0.0100    0.0100    0.0100    0.0100    0.0100    0.0100    0.0100
    0.0100    0.0100    0.0100    0.0100    0.0100    0.0100    0.0100    0.0100
    0.0100    0.0100    0.0100    0.0100    0.0100    0.0100    0.0100    0.0100
    0.0100    0.0100    0.0100    0.0100    0.0100    0.0100    0.0100    0.0100
    0.0100    0.0100    0.0100    0.0100    0.0100    0.0100    0.0100    0.0100
    0.0100    0.0100    0.0100    0.0100    0.0100    0.0100    0.0100    0.0100
    0.0100    0.0100    0.0100    0.0100    0.0100    0.0100    0.0100    0.0100
    0.0100    0.0100    0.0100    0.0100    0.0100    0.0100    0.0100    0.0100
    0.0100    0.0100    0.0100    0.0100    0.0100    0.0100    0.0100    0.0100
    0.0100    0.0100    0.0100    0.0100    0.0100    0.0100    0.0100    0.0100
    0.0100    0.0100    0.0100    0.0100    0.0100    0.0100    0.0100    0.0100
    0.0100    0.0100    0.0100    0.0100    0.0100    0.0100    0.0100    0.0100
    0.0100    0.0100    0.0100    0.0100    0.0100    0.0100    0.0100    0.0100
    0.0100    0.0100    0.0100    0.0100    0.0100    0.0100    0.0100    0.0100
    0.0100    0.0100    0.0100    0.0100    0.0100    0.0100    0.0100    0.0100
    0.0100    0.0100
   </PP_RAB>
 </PP_MESH>
  <PP_LOCAL type="real"  size=" 602" columns="4">
   -1.7437516120E+01   -2.8661218946E+01   -2.9812003432E+01   -2.6815522302E+01
   -2.5597428278E+01   -2.5218088777E+01   -2.5076124106E+01   -2.4998577379E+01
   -2.4937826640E+01   -2.4879884236E+01   -2.4820270179E+01   -2.4757412248E+01
   -2.4690707529E+01   -2.4619908618E+01   -2.4544913952E+01   -2.4465690072E+01
   -2.4382239902E+01   -2.4294588183E+01   -2.4202773825E+01   -2.4106845330E+01
   -2.4006857712E+01   -2.3902870263E+01   -2.3794944832E+01   -2.3683144452E+01
   -2.3567532221E+01   -2.3448170369E+01   -2.3325119483E+01   -2.3198437853E+01
   -2.3068180933E+01   -2.2934400894E+01   -2.2797146278E+01   -2.2656461738E+01
   -2.2512387873E+01   -2.2364961151E+01   -2.2214213926E+01   -2.2060174574E+01
   -2.1902867687E+01   -2.1742314423E+01   -2.1578532926E+01   -2.1411538851E+01
   -2.1241346018E+01   -2.1067967144E+01   -2.0891414679E+01   -2.0711701725E+01
   -2.0528843042E+01   -2.0342856110E+01   -2.0153762249E+01   -1.9961587770E+01
   -1.9766365122E+01   -1.9568134059E+01   -1.9366942824E+01   -1.9162849156E+01
   -1.8955921192E+01   -1.8746238672E+01   -1.8533893323E+01   -1.8318989685E+01
   -1.8101645532E+01   -1.7881991925E+01   -1.7660173498E+01   -1.7436347980E+01
   -1.7210685889E+01   -1.6983369961E+01   -1.6754593800E+01   -1.6524561482E+01
   -1.6293485634E+01   -1.6061586135E+01   -1.5829088782E+01   -1.5596223292E+01
   -1.5363221713E+01   -1.5130316716E+01   -1.4897739845E+01   -1.4665719939E+01
   -1.4434481659E+01   -1.4204244184E+01   -1.3975220005E+01   -1.3747613830E+01
   -1.3521621990E+01   -1.3297431797E+01   -1.3075221158E+01   -1.2855158363E+01
   -1.2637402040E+01   -1.2422101244E+01   -1.2209395660E+01   -1.1999415900E+01
   -1.1792283861E+01   -1.1588113126E+01   -1.1387009382E+01   -1.1189070846E+01
   -1.0994388670E+01   -1.0803047324E+01   -1.0615124949E+01   -1.0430693659E+01
   -1.0249819810E+01   -1.0072564219E+01   -9.8989823399E+00   -9.7291243994E+00
   -9.5630354962E+00   -9.4007558349E+00   -9.2423202946E+00   -9.0877588186E+00
   -8.9370963431E+00   -8.7903527500E+00   -8.6475428366E+00   -8.5086764428E+00
   -8.3737581319E+00   -8.2427869426E+00   -8.1157568287E+00   -7.9926564372E+00
   -7.8734693478E+00   -7.7581734943E+00   -7.6467409698E+00   -7.5391386646E+00
   -7.4353281646E+00   -7.3352657501E+00   -7.2389009776E+00   -7.1461782942E+00
   -7.0570369231E+00   -6.9714100460E+00   -6.8892240431E+00   -6.8103999310E+00
   -6.7348539728E+00   -6.6624937797E+00   -6.5932214436E+00   -6.5269339285E+00
   -6.4635198789E+00   -6.4028605987E+00   -6.3448323139E+00   -6.2893026490E+00
   -6.2361307039E+00   -6.1851687676E+00   -6.1362460770E+00   -6.0891737898E+00
   -6.0437542780E+00   -5.9997824464E+00   -5.9570641603E+00   -5.9154057309E+00
   -5.8746445187E+00   -5.8346266722E+00   -5.7952216703E+00   -5.7563298574E+00
   -5.7178559554E+00   -5.6797439417E+00   -5.6419425664E+00   -5.6044192537E+00
   -5.5671584310E+00   -5.5301456719E+00   -5.4933852483E+00   -5.4568791441E+00
   -5.4206379339E+00   -5.3846728490E+00   -5.3489973601E+00   -5.3136250328E+00
   -5.2785699936E+00   -5.2438444091E+00   -5.2094608889E+00   -5.1754292076E+00
   -5.1417589860E+00   -5.1084574587E+00   -5.0755308179E+00   -5.0429838025E+00
   -5.0108193914E+00   -4.9790400036E+00   -4.9476459113E+00   -4.9166374676E+00
   -4.8860128224E+00   -4.8557705589E+00   -4.8259072537E+00   -4.7964200311E+00
   -4.7673043609E+00   -4.7385562137E+00   -4.7101703242E+00   -4.6821417944E+00
   -4.6544649071E+00   -4.6271341528E+00   -4.6001435689E+00   -4.5734872608E+00
   -4.5471591643E+00   -4.5211531944E+00   -4.4954632799E+00   -4.4700833106E+00
   -4.4450072653E+00   -4.4202291453E+00   -4.3957430102E+00   -4.3715430831E+00
   -4.3476235184E+00   -4.3239788438E+00   -4.3006033168E+00   -4.2774917787E+00
   -4.2546387370E+00   -4.2320392188E+00   -4.2096880970E+00   -4.1875805275E+00
   -4.1657118053E+00   -4.1440771838E+00   -4.1226724024E+00   -4.1014928094E+00
   -4.0805344887E+00   -4.0597931513E+00   -4.0392649393E+00   -4.0189460345E+00
   -3.9988326022E+00   -3.9789212720E+00   -3.9592082959E+00   -3.9396905671E+00
   -3.9203647169E+00   -3.9012276089E+00   -3.8822763374E+00   -3.8635077293E+00
   -3.8449192053E+00   -3.8265078683E+00   -3.8082711123E+00   -3.7902064559E+00
   -3.7723112189E+00   -3.7545832111E+00   -3.7370199771E+00   -3.7196192801E+00
   -3.7023790216E+00   -3.6852968792E+00   -3.6683709673E+00   -3.6515992010E+00
   -3.6349795807E+00   -3.6185102889E+00   -3.6021893394E+00   -3.5860149761E+00
   -3.5699854184E+00   -3.5540988193E+00   -3.5383535433E+00   -3.5227478466E+00
   -3.5072800370E+00   -3.4919485039E+00   -3.4767515617E+00   -3.4616876114E+00
   -3.4467550591E+00   -3.4319522686E+00   -3.4172776837E+00   -3.4027297199E+00
   -3.3883067879E+00   -3.3740073292E+00   -3.3598297607E+00   -3.3457725134E+00
   -3.3318340631E+00   -3.3180127986E+00   -3.3043072292E+00   -3.2907159686E+00
   -3.2772374878E+00   -3.2638704304E+00   -3.2506134911E+00   -3.2374652996E+00
   -3.2244245247E+00   -3.2114898374E+00   -3.1986598194E+00   -3.1859332481E+00
   -3.1733088943E+00   -3.1607854555E+00   -3.1483617369E+00   -3.1360365380E+00
   -3.1238085869E+00   -3.1116767424E+00   -3.0996398630E+00   -3.0876967359E+00
   -3.0758462566E+00   -3.0640873359E+00   -3.0524188164E+00   -3.0408396230E+00
   -3.0293487233E+00   -3.0179450177E+00   -3.0066274531E+00   -2.9953950551E+00
   -2.9842467852E+00   -2.9731816036E+00   -2.9621985961E+00   -2.9512967886E+00
   -2.9404751469E+00   -2.9297328183E+00   -2.9190688798E+00   -2.9084823458E+00
   -2.8979723759E+00   -2.8875381094E+00   -2.8771786280E+00   -2.8668930794E+00
   -2.8566806724E+00   -2.8465405607E+00   -2.8364718714E+00   -2.8264738829E+00
   -2.8165458092E+00   -2.8066867993E+00   -2.7968961512E+00   -2.7871731387E+00
   -2.7775169864E+00   -2.7679269534E+00   -2.7584023893E+00   -2.7489425950E+00
   -2.7395467978E+00   -2.7302144067E+00   -2.7209447682E+00   -2.7117371878E+00
   -2.7025910190E+00   -2.6935056869E+00   -2.6844805737E+00   -2.6755149928E+00
   -2.6666084229E+00   -2.6577602896E+00   -2.6489699866E+00   -2.6402369232E+00
   -2.6315606022E+00   -2.6229404784E+00   -2.6143759566E+00   -2.6058665452E+00
   -2.5974117510E+00   -2.5890110570E+00   -2.5806638980E+00   -2.5723698487E+00
   -2.5641284258E+00   -2.5559391247E+00   -2.5478014543E+00   -2.5397149955E+00
   -2.5316792911E+00   -2.5236938519E+00   -2.5157582451E+00   -2.5078720577E+00
   -2.5000348554E+00   -2.4922461670E+00   -2.4845056016E+00   -2.4768127538E+00
   -2.4691672088E+00   -2.4615685147E+00   -2.4540163084E+00   -2.4465101933E+00
   -2.4390497687E+00   -2.4316346093E+00   -2.4242643615E+00   -2.4169386412E+00
   -2.4096570597E+00   -2.4024192138E+00   -2.3952247558E+00   -2.3880733133E+00
   -2.3809645095E+00   -2.3738979555E+00   -2.3668733113E+00   -2.3598902150E+00
   -2.3529483009E+00   -2.3460471891E+00   -2.3391865497E+00   -2.3323660308E+00
   -2.3255852786E+00   -2.3188439163E+00   -2.3121416288E+00   -2.3054780742E+00
   -2.2988529111E+00   -2.2922657665E+00   -2.2857163384E+00   -2.2792043000E+00
   -2.2727293221E+00   -2.2662910402E+00   -2.2598891597E+00   -2.2535233799E+00
   -2.2471933879E+00   -2.2408988386E+00   -2.2346394319E+00   -2.2284149055E+00
   -2.2222249672E+00   -2.2160693127E+00   -2.2099476286E+00   -2.2038596764E+00
   -2.1978051806E+00   -2.1917838655E+00   -2.1857954228E+00   -2.1798396167E+00
   -2.1739161867E+00   -2.1680248688E+00   -2.1621653778E+00   -2.1563374587E+00
   -2.1505408792E+00   -2.1447753880E+00   -2.1390407300E+00   -2.1333366252E+00
   -2.1276628673E+00   -2.1220192168E+00   -2.1164054341E+00   -2.1108212567E+00
   -2.1052664597E+00   -2.0997408293E+00   -2.0942441369E+00   -2.0887761515E+00
   -2.0833366149E+00   -2.0779253420E+00   -2.0725421150E+00   -2.0671867160E+00
   -2.0618589102E+00   -2.0565584826E+00   -2.0512852441E+00   -2.0460389871E+00
   -2.0408195037E+00   -2.0356265580E+00   -2.0304599722E+00   -2.0253195543E+00
   -2.0202051063E+00   -2.0151164259E+00   -2.0100532909E+00   -2.0050155417E+00
   -2.0000029894E+00   -1.9950154452E+00   -1.9900527083E+00   -1.9851145834E+00
   -1.9802009118E+00   -1.9753115133E+00   -1.9704462079E+00   -1.9656047982E+00
   -1.9607871107E+00   -1.9559929888E+00   -1.9512222609E+00   -1.9464747552E+00
   -1.9417502793E+00   -1.9370486765E+00   -1.9323697940E+00   -1.9277134681E+00
   -1.9230795352E+00   -1.9184678093E+00   -1.9138781456E+00   -1.9093103968E+00
   -1.9047644068E+00   -1.9002400194E+00   -1.8957370569E+00   -1.8912553817E+00
   -1.8867948534E+00   -1.8823553233E+00   -1.8779366424E+00   -1.8735386423E+00
   -1.8691611886E+00   -1.8648041493E+00   -1.8604673825E+00   -1.8561507463E+00
   -1.8518540828E+00   -1.8475772568E+00   -1.8433201460E+00   -1.8390826150E+00
   -1.8348645287E+00   -1.8306657410E+00   -1.8264861122E+00   -1.8223255309E+00
   -1.8181838679E+00   -1.8140609945E+00   -1.8099567776E+00   -1.8058710698E+00
   -1.8018037713E+00   -1.7977547591E+00   -1.7937239104E+00   -1.7897111021E+00
   -1.7857161890E+00   -1.7817390708E+00   -1.7777796345E+00   -1.7738377630E+00
   -1.7699133391E+00   -1.7660062330E+00   -1.7621163287E+00   -1.7582435281E+00
   -1.7543877195E+00   -1.7505487911E+00   -1.7467266302E+00   -1.7429211021E+00
   -1.7391321243E+00   -1.7353595902E+00   -1.7316033932E+00   -1.7278634268E+00
   -1.7241395708E+00   -1.7204317235E+00   -1.7167397946E+00   -1.7130636826E+00
   -1.7094032860E+00   -1.7057585031E+00   -1.7021292086E+00   -1.6985153289E+00
   -1.6949167674E+00   -1.6913334272E+00   -1.6877652116E+00   -1.6842120150E+00
   -1.6806737355E+00   -1.6771502958E+00   -1.6736416038E+00   -1.6701475670E+00
   -1.6666680931E+00   -1.6632030745E+00   -1.6597524288E+00   -1.6563160760E+00
   -1.6528939281E+00   -1.6494858970E+00   -1.6460918947E+00   -1.6427118130E+00
   -1.6393455852E+00   -1.6359931297E+00   -1.6326543626E+00   -1.6293292000E+00
   -1.6260175565E+00   -1.6227193292E+00   -1.6194344586E+00   -1.6161628647E+00
   -1.6129044675E+00   -1.6096591868E+00   -1.6064269393E+00   -1.6032076307E+00
   -1.6000012029E+00   -1.5968075796E+00   -1.5936266844E+00   -1.5904584411E+00
   -1.5873027694E+00   -1.5841595804E+00   -1.5810288184E+00   -1.5779104108E+00
   -1.5748042848E+00   -1.5717103677E+00   -1.5686285837E+00   -1.5655588459E+00
   -1.5625011024E+00   -1.5594552840E+00   -1.5564213212E+00   -1.5533991448E+00
   -1.5503886849E+00   -1.5473898532E+00   -1.5444026029E+00   -1.5414268680E+00
   -1.5384625823E+00   -1.5355096797E+00   -1.5325680940E+00   -1.5296377430E+00
   -1.5267185758E+00   -1.5238105327E+00   -1.5209135507E+00   -1.5180275668E+00
   -1.5151525180E+00   -1.5122883302E+00   -1.5094349445E+00   -1.5065923092E+00
   -1.5037603643E+00   -1.5009390495E+00   -1.4981283049E+00   -1.4953280660E+00
   -1.4925382630E+00   -1.4897588532E+00   -1.4869897792E+00   -1.4842309837E+00
   -1.4814824094E+00   -1.4787439991E+00   -1.4760156806E+00   -1.4732974099E+00
   -1.4705891360E+00   -1.4678908041E+00   -1.4652023597E+00   -1.4625237482E+00
   -1.4598549093E+00   -1.4571957823E+00   -1.4545463276E+00   -1.4519064929E+00
   -1.4492762263E+00   -1.4466554756E+00   -1.4440441888E+00   -1.4414423008E+00
   -1.4388497696E+00   -1.4362665501E+00   -1.4336925927E+00   -1.4311278477E+00
   -1.4285722654E+00   -1.4260257948E+00   -1.4234883722E+00   -1.4209599659E+00
   -1.4184405284E+00   -1.4159300124E+00   -1.4134283706E+00   -1.4109355557E+00
   -1.4084515142E+00   -1.4059761948E+00   -1.4035095631E+00   -1.4010515740E+00
   -1.3986021823E+00   -1.3961613429E+00   -1.3937290106E+00   -1.3913051314E+00
   -1.3888896627E+00   -1.3864825689E+00   -1.3840838069E+00   -1.3816933338E+00
   -1.3793111065E+00   -1.3769370819E+00   -1.3745712066E+00   -1.3722134437E+00
   -1.3698637576E+00   -1.3675221074E+00   -1.3651884520E+00   -1.3628627504E+00
   -1.3605449616E+00   -1.3582350340E+00   -1.3559329332E+00   -1.3536386252E+00
   -1.3513520708E+00   -1.3490732311E+00   -1.3468020667E+00   -1.3445385387E+00
   -1.3422825986E+00   -1.3400342116E+00   -1.3377933465E+00   -1.3355599660E+00
   -1.3333340327E+00   -1.3311155093E+00
  </PP_LOCAL>
 <PP_NONLOCAL>
   <PP_BETA.1
       type="real"
       size=" 602"
       columns="4"
       index="1"
       angular_momentum="0"
       cutoff_radius_index=" 360"
       cutoff_radius="    3.5900000000E+00" >
    0.0000000000E+00   -2.8221815064E-02   -5.6445494146E-02   -8.4672798174E-02
   -1.1290528242E-01   -1.4114419502E-01   -1.6939037699E-01   -1.9764416446E-01
   -2.2590529336E-01   -2.5417280734E-01   -2.8244496917E-01   -3.1071917623E-01
   -3.3899188049E-01   -3.6725851341E-01   -3.9551341619E-01   -4.2374977577E-01
   -4.5195956690E-01   -4.8013350064E-01   -5.0826097968E-01   -5.3633006058E-01
   -5.6432742345E-01   -5.9223834897E-01   -6.2004670328E-01   -6.4773493061E-01
   -6.7528405402E-01   -7.0267368407E-01   -7.2988203577E-01   -7.5688595359E-01
   -7.8366094468E-01   -8.1018122008E-01   -8.3641974406E-01   -8.6234829125E-01
   -8.8793751148E-01   -9.1315700192E-01   -9.3797538773E-01   -9.6236040672E-01
   -9.8627900573E-01   -1.0096974377E+00   -1.0325813683E+00   -1.0548959893E+00
   -1.0766061328E+00   -1.0976763939E+00   -1.1180712564E+00   -1.1377552226E+00
   -1.1566929460E+00   -1.1748493674E+00   -1.1921898527E+00   -1.2086803323E+00
   -1.2242874399E+00   -1.2389786542E+00   -1.2527224471E+00   -1.2654884142E+00
   -1.2772474045E+00   -1.2879716911E+00   -1.2976350645E+00   -1.3062129874E+00
   -1.3136827195E+00   -1.3200234233E+00   -1.3252163082E+00   -1.3292447140E+00
   -1.3320942308E+00   -1.3337528104E+00   -1.3342107988E+00   -1.3334611156E+00
   -1.3314992447E+00   -1.3283233091E+00   -1.3239341926E+00   -1.3183355172E+00
   -1.3115336917E+00   -1.3035379589E+00   -1.2943604150E+00   -1.2840159881E+00
   -1.2725224433E+00   -1.2599003611E+00   -1.2461731164E+00   -1.2313668437E+00
   -1.2155103670E+00   -1.1986351442E+00   -1.1807751919E+00   -1.1619669990E+00
   -1.1422494296E+00   -1.1216636141E+00   -1.1002528308E+00   -1.0780623759E+00
   -1.0551394246E+00   -1.0315328824E+00   -1.0072932275E+00   -9.8247234403E-01
   -9.5712334874E-01   -9.3130040905E-01   -9.0505855527E-01   -8.7845348675E-01
   -8.5154137297E-01   -8.2437865045E-01   -7.9702181639E-01   -7.6952722007E-01
   -7.4195085306E-01   -7.1434821614E-01   -6.8677390605E-01   -6.5928155973E-01
   -6.3192362693E-01   -6.0475115793E-01   -5.7781360797E-01   -5.5115873672E-01
   -5.2483227910E-01   -4.9887765196E-01   -4.7333605097E-01   -4.4824620154E-01
   -4.2364436897E-01   -3.9956392416E-01   -3.7603514698E-01   -3.5308549766E-01
   -3.3073948793E-01   -3.0901860414E-01   -2.8794058200E-01   -2.6752024382E-01
   -2.4776940474E-01   -2.2869649299E-01   -2.1030639800E-01   -1.9260118199E-01
   -1.7558023258E-01   -1.5923918513E-01   -1.4357125711E-01   -1.2856728230E-01
   -1.1421521157E-01   -1.0050086915E-01   -8.7408295841E-02   -7.4919574617E-02
   -6.3015584487E-02   -5.1675983019E-02   -4.0879118786E-02   -3.0603560495E-02
   -2.0827219738E-02   -1.1530587313E-02   -2.6960536331E-03    5.6933328970E-03
    1.3649262176E-02    2.1183224527E-02    2.8303792616E-02    3.5017205752E-02
    4.1329605064E-02    4.7244681154E-02    5.2766576584E-02    5.7898783694E-02