<UPF version="2.0.1">
  <PP_INFO>

 This pseudopotential file has been produced using the code
 ONCVPSP  (Optimized Norm-Conservinng Vanderbilt PSeudopotential)
 scalar-relativistic version 2.1.1, 03/26/2014 by D. R. Hamann
 The code is available through a link at URL www.mat-simresearch.com.
 Documentation with the package provides a full discription of the
 input data below.


 While it is not required under the terms of the GNU GPL, it is
 suggested that you cite D. R. Hamann, Phys. Rev. B 88, 085117 (2013)
 in any publication using these pseudopotentials.

    <PP_INPUTFILE>
# ATOM AND REFERENCE CONFIGURATION
# atsym  z    nc    nv    iexc   psfile
  Sr 38.00     6     3     4      upf
#
#   n    l    f        energy (Ha)
    1    0    2.00
    2    0    2.00
    2    1    6.00
    3    0    2.00
    3    1    6.00
    3    2   10.00
    4    0    2.00
    4    1    6.00
    5    0    2.00
#
# PSEUDOPOTENTIAL AND OPTIMIZATION
# lmax
    2
#
#   l,   rc,     ep,   ncon, nbas, qcut
    0   2.81795  -1.50306    5    8   5.13478
    1   2.68665  -0.83870    5    8   6.02350
    2   2.38455   0.14052    5    8   6.40996
#
# LOCAL POTENTIAL
# lloc, lpopt,  rc(5),   dvloc0
    4    5   1.99388      0.00000
#
# VANDERBILT-KLEINMAN-BYLANDER PROJECTORs
# l, nproj, debl
    0    2   1.37348
    1    2   1.67324
    2    2   1.13361
#
# MODEL CORE CHARGE
# icmod, fcfact
    0   0.00000
#
# LOG DERIVATIVE ANALYSIS
# epsh1, epsh2, depsh
   -5.00    3.00    0.02
#
# OUTPUT GRID
# rlmax, drl
    6.00    0.01
#
# TEST CONFIGURATIONS
# ncnf
    0
# nvcnf
#   n    l    f
    </PP_INPUTFILE>
  </PP_INFO>
  <!--                               -->
  <!-- END OF HUMAN READABLE SECTION -->
  <!--                               -->
    <PP_HEADER
       generated="Generated using ONCVPSP code by D. R. Hamann"
       author="anonymous"
       date="241015"
       comment=""
       element="Sr"
       pseudo_type="NC"
       relativistic="scalar"
       is_ultrasoft="F"
       is_paw="F"
       is_coulomb="F"
       has_so="F"
       has_wfc="F"
       has_gipaw="T"
       core_correction="F"
       functional="PBE"
       z_valence="   10.00"
       total_psenergy="  -3.10759011823E+01"
       rho_cutoff="   6.01000000000E+00"
       l_max="2"
       l_local="-1"
       mesh_size="   602"
       number_of_wfc="0"
       number_of_proj="6"/>
 <PP_MESH>
   <PP_R type="real"  size=" 602" columns="8">
    0.0000    0.0100    0.0200    0.0300    0.0400    0.0500    0.0600    0.0700
    0.0800    0.0900    0.1000    0.1100    0.1200    0.1300    0.1400    0.1500
    0.1600    0.1700    0.1800    0.1900    0.2000    0.2100    0.2200    0.2300
    0.2400    0.2500    0.2600    0.2700    0.2800    0.2900    0.3000    0.3100
    0.3200    0.3300    0.3400    0.3500    0.3600    0.3700    0.3800    0.3900
    0.4000    0.4100    0.4200    0.4300    0.4400    0.4500    0.4600    0.4700
    0.4800    0.4900    0.5000    0.5100    0.5200    0.5300    0.5400    0.5500
    0.5600    0.5700    0.5800    0.5900    0.6000    0.6100    0.6200    0.6300
    0.6400    0.6500    0.6600    0.6700    0.6800    0.6900    0.7000    0.7100
    0.7200    0.7300    0.7400    0.7500    0.7600    0.7700    0.7800    0.7900
    0.8000    0.8100    0.8200    0.8300    0.8400    0.8500    0.8600    0.8700
    0.8800    0.8900    0.9000    0.9100    0.9200    0.9300    0.9400    0.9500
    0.9600    0.9700    0.9800    0.9900    1.0000    1.0100    1.0200    1.0300
    1.0400    1.0500    1.0600    1.0700    1.0800    1.0900    1.1000    1.1100
    1.1200    1.1300    1.1400    1.1500    1.1600    1.1700    1.1800    1.1900
    1.2000    1.2100    1.2200    1.2300    1.2400    1.2500    1.2600    1.2700
    1.2800    1.2900    1.3000    1.3100    1.3200    1.3300    1.3400    1.3500
    1.3600    1.3700    1.3800    1.3900    1.4000    1.4100    1.4200    1.4300
    1.4400    1.4500    1.4600    1.4700    1.4800    1.4900    1.5000    1.5100
    1.5200    1.5300    1.5400    1.5500    1.5600    1.5700    1.5800    1.5900
    1.6000    1.6100    1.6200    1.6300    1.6400    1.6500    1.6600    1.6700
    1.6800    1.6900    1.7000    1.7100    1.7200    1.7300    1.7400    1.7500
    1.7600    1.7700    1.7800    1.7900    1.8000    1.8100    1.8200    1.8300
    1.8400    1.8500    1.8600    1.8700    1.8800    1.8900    1.9000    1.9100
    1.9200    1.9300    1.9400    1.9500    1.9600    1.9700    1.9800    1.9900
    2.0000    2.0100    2.0200    2.0300    2.0400    2.0500    2.0600    2.0700
    2.0800    2.0900    2.1000    2.1100    2.1200    2.1300    2.1400    2.1500
    2.1600    2.1700    2.1800    2.1900    2.2000    2.2100    2.2200    2.2300
    2.2400    2.2500    2.2600    2.2700    2.2800    2.2900    2.3000    2.3100
    2.3200    2.3300    2.3400    2.3500    2.3600    2.3700    2.3800    2.3900
    2.4000    2.4100    2.4200    2.4300    2.4400    2.4500    2.4600    2.4700
    2.4800    2.4900    2.5000    2.5100    2.5200    2.5300    2.5400    2.5500
    2.5600    2.5700    2.5800    2.5900    2.6000    2.6100    2.6200    2.6300
    2.6400    2.6500    2.6600    2.6700    2.6800    2.6900    2.7000    2.7100
    2.7200    2.7300    2.7400    2.7500    2.7600    2.7700    2.7800    2.7900
    2.8000    2.8100    2.8200    2.8300    2.8400    2.8500    2.8600    2.8700
    2.8800    2.8900    2.9000    2.9100    2.9200    2.9300    2.9400    2.9500
    2.9600    2.9700    2.9800    2.9900    3.0000    3.0100    3.0200    3.0300
    3.0400    3.0500    3.0600    3.0700    3.0800    3.0900    3.1000    3.1100
    3.1200    3.1300    3.1400    3.1500    3.1600    3.1700    3.1800    3.1900
    3.2000    3.2100    3.2200    3.2300    3.2400    3.2500    3.2600    3.2700
    3.2800    3.2900    3.3000    3.3100    3.3200    3.3300    3.3400    3.3500
    3.3600    3.3700    3.3800    3.3900    3.4000    3.4100    3.4200    3.4300
    3.4400    3.4500    3.4600    3.4700    3.4800    3.4900    3.5000    3.5100
    3.5200    3.5300    3.5400    3.5500    3.5600    3.5700    3.5800    3.5900
    3.6000    3.6100    3.6200    3.6300    3.6400    3.6500    3.6600    3.6700
    3.6800    3.6900    3.7000    3.7100    3.7200    3.7300    3.7400    3.7500
    3.7600    3.7700    3.7800    3.7900    3.8000    3.8100    3.8200    3.8300
    3.8400    3.8500    3.8600    3.8700    3.8800    3.8900    3.9000    3.9100
    3.9200    3.9300    3.9400    3.9500    3.9600    3.9700    3.9800    3.9900
    4.0000    4.0100    4.0200    4.0300    4.0400    4.0500    4.0600    4.0700
    4.0800    4.0900    4.1000    4.1100    4.1200    4.1300    4.1400    4.1500
    4.1600    4.1700    4.1800    4.1900    4.2000    4.2100    4.2200    4.2300
    4.2400    4.2500    4.2600    4.2700    4.2800    4.2900    4.3000    4.3100
    4.3200    4.3300    4.3400    4.3500    4.3600    4.3700    4.3800    4.3900
    4.4000    4.4100    4.4200    4.4300    4.4400    4.4500    4.4600    4.4700
    4.4800    4.4900    4.5000    4.5100    4.5200    4.5300    4.5400    4.5500
    4.5600    4.5700    4.5800    4.5900    4.6000    4.6100    4.6200    4.6300
    4.6400    4.6500    4.6600    4.6700    4.6800    4.6900    4.7000    4.7100
    4.7200    4.7300    4.7400    4.7500    4.7600    4.7700    4.7800    4.7900
    4.8000    4.8100    4.8200    4.8300    4.8400    4.8500    4.8600    4.8700
    4.8800    4.8900    4.9000    4.9100    4.9200    4.9300    4.9400    4.9500
    4.9600    4.9700    4.9800    4.9900    5.0000    5.0100    5.0200    5.0300
    5.0400    5.0500    5.0600    5.0700    5.0800    5.0900    5.1000    5.1100
    5.1200    5.1300    5.1400    5.1500    5.1600    5.1700    5.1800    5.1900
    5.2000    5.2100    5.2200    5.2300    5.2400    5.2500    5.2600    5.2700
    5.2800    5.2900    5.3000    5.3100    5.3200    5.3300    5.3400    5.3500
    5.3600    5.3700    5.3800    5.3900    5.4000    5.4100    5.4200    5.4300
    5.4400    5.4500    5.4600    5.4700    5.4800    5.4900    5.5000    5.5100
    5.5200    5.5300    5.5400    5.5500    5.5600    5.5700    5.5800    5.5900
    5.6000    5.6100    5.6200    5.6300    5.6400    5.6500    5.6600    5.6700
    5.6800    5.6900    5.7000    5.7100    5.7200    5.7300    5.7400    5.7500
    5.7600    5.7700    5.7800    5.7900    5.8000    5.8100    5.8200    5.8300
    5.8400    5.8500    5.8600    5.8700    5.8800    5.8900    5.9000    5.9100
    5.9200    5.9300    5.9400    5.9500    5.9600    5.9700    5.9800    5.9900
    6.0000    6.0100
   </PP_R>
   <PP_RAB type="real"  size=" 602" columns="8">
    0.0100    0.0100    0.0100    0.0100    0.0100    0.0100    0.0100    0.0100
    0.0100    0.0100    0.0100    0.0100    0.0100    0.0100    0.0100    0.0100
    0.0100    0.0100    0.0100    0.0100    0.0100    0.0100    0.0100    0.0100
    0.0100    0.0100    0.0100    0.0100    0.0100    0.0100    0.0100    0.0100
    0.0100    0.0100    0.0100    0.0100    0.0100    0.0100    0.0100    0.0100
    0.0100    0.0100    0.0100    0.0100    0.0100    0.0100    0.0100    0.0100
    0.0100    0.0100    0.0100    0.0100    0.0100    0.0100    0.0100    0.0100
    0.0100    0.0100    0.0100    0.0100    0.0100    0.0100    0.0100    0.0100
    0.0100    0.0100    0.0100    0.0100    0.0100    0.0100    0.0100    0.0100
    0.0100    0.0100    0.0100    0.0100    0.0100    0.0100    0.0100    0.0100
    0.0100    0.0100    0.0100    0.0100    0.0100    0.0100    0.0100    0.0100
    0.0100    0.0100    0.0100    0.0100    0.0100    0.0100    0.0100    0.0100
    0.0100    0.0100    0.0100    0.0100    0.0100    0.0100    0.0100    0.0100
    0.0100    0.0100    0.0100    0.0100    0.0100    0.0100    0.0100    0.0100
    0.0100    0.0100    0.0100    0.0100    0.0100    0.0100    0.0100    0.0100
    0.0100    0.0100    0.0100    0.0100    0.0100    0.0100    0.0100    0.0100
    0.0100    0.0100    0.0100    0.0100    0.0100    0.0100    0.0100    0.0100
    0.0100    0.0100    0.0100    0.0100    0.0100    0.0100    0.0100    0.0100
    0.0100    0.0100    0.0100    0.0100    0.0100    0.0100    0.0100    0.0100
    0.0100    0.0100    0.0100    0.0100    0.0100    0.0100    0.0100    0.0100
    0.0100    0.0100    0.0100    0.0100    0.0100    0.0100    0.0100    0.0100
    0.0100    0.0100    0.0100    0.0100    0.0100    0.0100    0.0100    0.0100
    0.0100    0.0100    0.0100    0.0100    0.0100    0.0100    0.0100    0.0100
    0.0100    0.0100    0.0100    0.0100    0.0100    0.0100    0.0100    0.0100
    0.0100    0.0100    0.0100    0.0100    0.0100    0.0100    0.0100    0.0100
    0.0100    0.0100    0.0100    0.0100    0.0100    0.0100    0.0100    0.0100
    0.0100    0.0100    0.0100    0.0100    0.0100    0.0100    0.0100    0.0100
    0.0100    0.0100    0.0100    0.0100    0.0100    0.0100    0.0100    0.0100
    0.0100    0.0100    0.0100    0.0100    0.0100    0.0100    0.0100    0.0100
    0.0100    0.0100    0.0100    0.0100    0.0100    0.0100    0.0100    0.0100
    0.0100    0.0100    0.0100    0.0100    0.0100    0.0100    0.0100    0.0100
    0.0100    0.0100    0.0100    0.0100    0.0100    0.0100    0.0100    0.0100
    0.0100    0.0100    0.0100    0.0100    0.0100    0.0100    0.0100    0.0100
    0.0100    0.0100    0.0100    0.0100    0.0100    0.0100    0.0100    0.0100
    0.0100    0.0100    0.0100    0.0100    0.0100    0.0100    0.0100    0.0100
    0.0100    0.0100    0.0100    0.0100    0.0100    0.0100    0.0100    0.0100
    0.0100    0.0100    0.0100    0.0100    0.0100    0.0100    0.0100    0.0100
    0.0100    0.0100    0.0100    0.0100    0.0100    0.0100    0.0100    0.0100
    0.0100    0.0100    0.0100    0.0100    0.0100    0.0100    0.0100    0.0100
    0.0100    0.0100    0.0100    0.0100    0.0100    0.0100    0.0100    0.0100
    0.0100    0.0100    0.0100    0.0100    0.0100    0.0100    0.0100    0.0100
    0.0100    0.0100    0.0100    0.0100    0.0100    0.0100    0.0100    0.0100
    0.0100    0.0100    0.0100    0.0100    0.0100    0.0100    0.0100    0.0100
    0.0100    0.0100    0.0100    0.0100    0.0100    0.0100    0.0100    0.0100
    0.0100    0.0100    0.0100    0.0100    0.0100    0.0100    0.0100    0.0100
    0.0100    0.0100    0.0100    0.0100    0.0100    0.0100    0.0100    0.0100
    0.0100    0.0100    0.0100    0.0100    0.0100    0.0100    0.0100    0.0100
    0.0100    0.0100    0.0100    0.0100    0.0100    0.0100    0.0100    0.0100
    0.0100    0.0100    0.0100    0.0100    0.0100    0.0100    0.0100    0.0100
    0.0100    0.0100    0.0100    0.0100    0.0100    0.0100    0.0100    0.0100
    0.0100    0.0100    0.0100    0.0100    0.0100    0.0100    0.0100    0.0100
    0.0100    0.0100    0.0100    0.0100    0.0100    0.0100    0.0100    0.0100
    0.0100    0.0100    0.0100    0.0100    0.0100    0.0100    0.0100    0.0100
    0.0100    0.0100    0.0100    0.0100    0.0100    0.0100    0.0100    0.0100
    0.0100    0.0100    0.0100    0.0100    0.0100    0.0100    0.0100    0.0100
    0.0100    0.0100    0.0100    0.0100    0.0100    0.0100    0.0100    0.0100
    0.0100    0.0100    0.0100    0.0100    0.0100    0.0100    0.0100    0.0100
    0.0100    0.0100    0.0100    0.0100    0.0100    0.0100    0.0100    0.0100
    0.0100    0.0100    0.0100    0.0100    0.0100    0.0100    0.0100    0.0100
    0.0100    0.0100    0.0100    0.0100    0.0100    0.0100    0.0100    0.0100
    0.0100    0.0100    0.0100    0.0100    0.0100    0.0100    0.0100    0.0100
    0.0100    0.0100    0.0100    0.0100    0.0100    0.0100    0.0100    0.0100
    0.0100    0.0100    0.0100    0.0100    0.0100    0.0100    0.0100    0.0100
    0.0100    0.0100    0.0100    0.0100    0.0100    0.0100    0.0100    0.0100
    0.0100    0.0100    0.0100    0.0100    0.0100    0.0100    0.0100    0.0100
    0.0100    0.0100    0.0100    0.0100    0.0100    0.0100    0.0100    0.0100
    0.0100    0.0100    0.0100    0.0100    0.0100    0.0100    0.0100    0.0100
    0.0100    0.0100    0.0100    0.0100    0.0100    0.0100    0.0100    0.0100
    0.0100    0.0100    0.0100    0.0100    0.0100    0.0100    0.0100    0.0100
    0.0100    0.0100    0.0100    0.0100    0.0100    0.0100    0.0100    0.0100
    0.0100    0.0100    0.0100    0.0100    0.0100    0.0100    0.0100    0.0100
    0.0100    0.0100    0.0100    0.0100    0.0100    0.0100    0.0100    0.0100
    0.0100    0.0100    0.0100    0.0100    0.0100    0.0100    0.0100    0.0100
    0.0100    0.0100    0.0100    0.0100    0.0100    0.0100    0.0100    0.0100
    0.0100    0.0100    0.0100    0.0100    0.0100    0.0100    0.0100    0.0100
    0.0100    0.0100
   </PP_RAB>
 </PP_MESH>
  <PP_LOCAL type="real"  size=" 602" columns="4">
   -2.2558737599E+01   -2.2558685814E+01   -2.2558647684E+01   -2.2558490703E+01
   -2.2558082367E+01   -2.2557251470E+01   -2.2555800318E+01   -2.2553517853E+01
   -2.2550192400E+01   -2.2545622948E+01   -2.2539628223E+01   -2.2532053159E+01
   -2.2522772728E+01   -2.2511693355E+01   -2.2498752307E+01   -2.2483915564E+01
   -2.2467174641E+01   -2.2448542837E+01   -2.2428051273E+01   -2.2405745016E+01
   -2.2381679472E+01   -2.2355917195E+01   -2.2328525145E+01   -2.2299572420E+01
   -2.2269128441E+01   -2.2237261545E+01   -2.2204037931E+01   -2.2169520912E+01
   -2.2133770408E+01   -2.2096842642E+01   -2.2058789985E+01   -2.2019660916E+01
   -2.1979500068E+01   -2.1938348327E+01   -2.1896242986E+01   -2.1853217904E+01
   -2.1809303700E+01   -2.1764527930E+01   -2.1718915285E+01   -2.1672487779E+01
   -2.1625264914E+01   -2.1577263866E+01   -2.1528499647E+01   -2.1478985256E+01
   -2.1428731837E+01   -2.1377748813E+01   -2.1326044028E+01   -2.1273623876E+01
   -2.1220493424E+01   -2.1166656532E+01   -2.1112115974E+01   -2.1056873560E+01
   -2.1000930222E+01   -2.0944286148E+01   -2.0886940880E+01   -2.0828893407E+01
   -2.0770142286E+01   -2.0710685723E+01   -2.0650521685E+01   -2.0589647985E+01
   -2.0528062380E+01   -2.0465762659E+01   -2.0402746731E+01   -2.0339012703E+01
   -2.0274558970E+01   -2.0209384282E+01   -2.0143487809E+01   -2.0076869232E+01
   -2.0009528781E+01   -1.9941467295E+01   -1.9872686271E+01   -1.9803187933E+01
   -1.9732975242E+01   -1.9662051937E+01   -1.9590422565E+01   -1.9518092493E+01
   -1.9445067933E+01   -1.9371355954E+01   -1.9296964473E+01   -1.9221902254E+01
   -1.9146178902E+01   -1.9069804851E+01   -1.8992791342E+01   -1.8915150405E+01
   -1.8836894831E+01   -1.8758038144E+01   -1.8678594566E+01   -1.8598578985E+01
   -1.8518006917E+01   -1.8436894465E+01   -1.8355258286E+01   -1.8273115540E+01
   -1.8190483861E+01   -1.8107381305E+01   -1.8023826313E+01   -1.7939837673E+01
   -1.7855434488E+01   -1.7770636122E+01   -1.7685462172E+01   -1.7599932427E+01
   -1.7514066837E+01   -1.7427885482E+01   -1.7341408535E+01   -1.7254656248E+01
   -1.7167648903E+01   -1.7080406801E+01   -1.6992950229E+01   -1.6905299453E+01
   -1.6817474677E+01   -1.6729496034E+01   -1.6641383568E+01   -1.6553157225E+01
   -1.6464836831E+01   -1.6376442061E+01   -1.6287992453E+01   -1.6199507403E+01
   -1.6111006127E+01   -1.6022507645E+01   -1.5934030803E+01   -1.5845594296E+01
   -1.5757216546E+01   -1.5668915786E+01   -1.5580710081E+01   -1.5492617233E+01
   -1.5404654795E+01   -1.5316840150E+01   -1.5229190423E+01   -1.5141722444E+01
   -1.5054452877E+01   -1.4967398115E+01   -1.4880574225E+01   -1.4793997134E+01
   -1.4707682428E+01   -1.4621645395E+01   -1.4535901201E+01   -1.4450464556E+01
   -1.4365349969E+01   -1.4280571762E+01   -1.4196143753E+01   -1.4112079689E+01
   -1.4028392889E+01   -1.3945096352E+01   -1.3862202976E+01   -1.3779725027E+01
   -1.3697674771E+01   -1.3616063942E+01   -1.3534904015E+01   -1.3454206255E+01
   -1.3373981304E+01   -1.3294239913E+01   -1.3214991975E+01   -1.3136247484E+01
   -1.3058015786E+01   -1.2980306015E+01   -1.2903126961E+01   -1.2826486880E+01
   -1.2750393985E+01   -1.2674855641E+01   -1.2599879460E+01   -1.2525471932E+01
   -1.2451639974E+01   -1.2378389289E+01   -1.2305725979E+01   -1.2233655021E+01
   -1.2162181672E+01   -1.2091310160E+01   -1.2021044904E+01   -1.1951389350E+01
   -1.1882347093E+01   -1.1813920769E+01   -1.1746113168E+01   -1.1678926081E+01
   -1.1612361525E+01   -1.1546420411E+01   -1.1481104014E+01   -1.1416412335E+01
   -1.1352345948E+01   -1.1288903912E+01   -1.1226086139E+01   -1.1163890784E+01
   -1.1102316957E+01   -1.1041362112E+01   -1.0981024415E+01   -1.0921300746E+01
   -1.0862188267E+01   -1.0803683358E+01   -1.0745782134E+01   -1.0688480545E+01
   -1.0631773628E+01   -1.0575656958E+01   -1.0520124553E+01   -1.0465171440E+01
   -1.0410790957E+01   -1.0356977147E+01   -1.0303723087E+01   -1.0251021657E+01
   -1.0198865761E+01   -1.0147247082E+01   -1.0096158299E+01   -1.0045590294E+01
   -9.9955344954E+00   -9.9459822215E+00   -9.8969246263E+00   -9.8483528754E+00
   -9.8002591527E+00   -9.7526348850E+00   -9.7054726369E+00   -9.6587647297E+00
   -9.6125035976E+00   -9.5666825096E+00   -9.5212939979E+00   -9.4763317729E+00
   -9.4317891748E+00   -9.3876596913E+00   -9.3439375439E+00   -9.3006163056E+00
   -9.2576905091E+00   -9.2151544858E+00   -9.1730024909E+00   -9.1312295664E+00
   -9.0898302146E+00   -9.0487995048E+00   -9.0081326597E+00   -8.9678244761E+00
   -8.9278706511E+00   -8.8882664709E+00   -8.8490073386E+00   -8.8100891096E+00
   -8.7715072710E+00   -8.7332577124E+00   -8.6953364219E+00   -8.6577390841E+00
   -8.6204619643E+00   -8.5835011357E+00   -8.5468525848E+00   -8.5105127513E+00
   -8.4744778278E+00   -8.4387440925E+00   -8.4033080960E+00   -8.3681661614E+00
   -8.3333148098E+00   -8.2987507009E+00   -8.2644702833E+00   -8.2304702870E+00
   -8.1967474834E+00   -8.1632984435E+00   -8.1301200837E+00   -8.0972092910E+00
   -8.0645627599E+00   -8.0321775748E+00   -8.0000507439E+00   -7.9681790887E+00
   -7.9365598427E+00   -7.9051901387E+00   -7.8740669327E+00   -7.8431875812E+00
   -7.8125493420E+00   -7.7821493129E+00   -7.7519849399E+00   -7.7220535994E+00
   -7.6923525333E+00   -7.6628792399E+00   -7.6336311956E+00   -7.6046057769E+00
   -7.5758005029E+00   -7.5472129166E+00   -7.5188404757E+00   -7.4906807231E+00
   -7.4627312740E+00   -7.4349896149E+00   -7.4074532858E+00   -7.3801201560E+00
   -7.3529879087E+00   -7.3260540824E+00   -7.2993167602E+00   -7.2727738067E+00
   -7.2464229503E+00   -7.2202622457E+00   -7.1942896790E+00   -7.1685030920E+00
   -7.1429005287E+00   -7.1174801693E+00   -7.0922400673E+00   -7.0671782441E+00
   -7.0422929534E+00   -7.0175823477E+00   -6.9930444817E+00   -6.9686776369E+00
   -6.9444800537E+00   -6.9204498707E+00   -6.8965853084E+00   -6.8728848033E+00
   -6.8493466750E+00   -6.8259691231E+00   -6.8027506421E+00   -6.7796896287E+00
   -6.7567844012E+00   -6.7340333605E+00   -6.7114350627E+00   -6.6889879747E+00
   -6.6666904376E+00   -6.6445410880E+00   -6.6225384805E+00   -6.6006811086E+00
   -6.5789674727E+00   -6.5573962786E+00   -6.5359661319E+00   -6.5146755455E+00
   -6.4935232120E+00   -6.4725078499E+00   -6.4516281294E+00   -6.4308825917E+00
   -6.4102700949E+00   -6.3897893728E+00   -6.3694391207E+00   -6.3492180261E+00
   -6.3291249758E+00   -6.3091587607E+00   -6.2893181051E+00   -6.2696018283E+00
   -6.2500088421E+00   -6.2305379932E+00   -6.2111880404E+00   -6.1919579148E+00
   -6.1728465561E+00   -6.1538528646E+00   -6.1349756377E+00   -6.1162138994E+00
   -6.0975666214E+00   -6.0790327548E+00   -6.0606111399E+00   -6.0423008753E+00
   -6.0241009690E+00   -6.0060104206E+00   -5.9880281164E+00   -5.9701532134E+00
   -5.9523847597E+00   -5.9347218017E+00   -5.9171632737E+00   -5.8997083764E+00
   -5.8823562016E+00   -5.8651058401E+00   -5.8479562776E+00   -5.8309067434E+00
   -5.8139563770E+00   -5.7971043116E+00   -5.7803495867E+00   -5.7636914466E+00
   -5.7471290817E+00   -5.7306616658E+00   -5.7142882952E+00   -5.6980082159E+00
   -5.6818206724E+00   -5.6657248768E+00   -5.6497199857E+00   -5.6338052343E+00
   -5.6179799234E+00   -5.6022433021E+00   -5.5865945900E+00   -5.5710330006E+00
   -5.5555578926E+00   -5.5401685502E+00   -5.5248642575E+00   -5.5096442015E+00
   -5.4945077948E+00   -5.4794543563E+00   -5.4644832038E+00   -5.4495935911E+00
   -5.4347848836E+00   -5.4200564667E+00   -5.4054076899E+00   -5.3908378785E+00
   -5.3763463409E+00   -5.3619325292E+00   -5.3475958232E+00   -5.3333356028E+00
   -5.3191511732E+00   -5.3050419918E+00   -5.2910074870E+00   -5.2770470675E+00
   -5.2631601144E+00   -5.2493460070E+00   -5.2356042465E+00   -5.2219342691E+00
   -5.2083355111E+00   -5.1948073426E+00   -5.1813492612E+00   -5.1679607534E+00
   -5.1546412818E+00   -5.1413902976E+00   -5.1282072021E+00   -5.1150915584E+00
   -5.1020428541E+00   -5.0890605769E+00   -5.0761441744E+00   -5.0632931381E+00
   -5.0505070263E+00   -5.0377853504E+00   -5.0251276220E+00   -5.0125332908E+00
   -5.0000019241E+00   -4.9875330785E+00   -4.9751262883E+00   -4.9627810879E+00
   -4.9504969342E+00   -4.9382734558E+00   -4.9261102119E+00   -4.9140067587E+00
   -4.9019626420E+00   -4.8899773608E+00   -4.8780505610E+00   -4.8661818192E+00
   -4.8543707120E+00   -4.8426167980E+00   -4.8309196161E+00   -4.8192788228E+00
   -4.8076940143E+00   -4.7961647870E+00   -4.7846907160E+00   -4.7732713686E+00
   -4.7619064152E+00   -4.7505954710E+00   -4.7393381511E+00   -4.7281340509E+00
   -4.7169827550E+00   -4.7058839513E+00   -4.6948372728E+00   -4.6838423528E+00
   -4.6728988102E+00   -4.6620062367E+00   -4.6511643408E+00   -4.6403727729E+00
   -4.6296311831E+00   -4.6189392176E+00   -4.6082964653E+00   -4.5977026586E+00
   -4.5871574640E+00   -4.5766605480E+00   -4.5662115772E+00   -4.5558101587E+00
   -4.5454560214E+00   -4.5351488574E+00   -4.5248883486E+00   -4.5146741771E+00
   -4.5045059839E+00   -4.4943834733E+00   -4.4843063696E+00   -4.4742743695E+00
   -4.4642871701E+00   -4.4543444490E+00   -4.4444458784E+00   -4.4345912167E+00
   -4.4247801749E+00   -4.4150124640E+00   -4.4052877949E+00   -4.3956058210E+00
   -4.3859663160E+00   -4.3763690110E+00   -4.3668136304E+00   -4.3572998988E+00
   -4.3478275119E+00   -4.3383961932E+00   -4.3290057150E+00   -4.3196558147E+00
   -4.3103462295E+00   -4.3010766967E+00   -4.2918468965E+00   -4.2826566303E+00
   -4.2735056517E+00   -4.2643937102E+00   -4.2553205555E+00   -4.2462859154E+00
   -4.2372895258E+00   -4.2283311869E+00   -4.2194106600E+00   -4.2105277063E+00
   -4.2016820870E+00   -4.1928735216E+00   -4.1841018029E+00   -4.1753667209E+00
   -4.1666680478E+00   -4.1580055561E+00   -4.1493790179E+00   -4.1407881495E+00
   -4.1322327889E+00   -4.1237127198E+00   -4.1152277250E+00   -4.1067775875E+00
   -4.0983620785E+00   -4.0899809501E+00   -4.0816340397E+00   -4.0733211403E+00
   -4.0650420451E+00   -4.0567965471E+00   -4.0485844197E+00   -4.0404054430E+00
   -4.0322594555E+00   -4.0241462597E+00   -4.0160656584E+00   -4.0080174543E+00
   -4.0000014268E+00   -3.9920173747E+00   -3.9840651407E+00   -3.9761445368E+00
   -3.9682553747E+00   -3.9603974664E+00   -3.9525706008E+00   -3.9447745865E+00
   -3.9370092739E+00   -3.9292744838E+00   -3.9215700366E+00   -3.9138957532E+00
   -3.9062514351E+00   -3.8986368924E+00   -3.8910519865E+00   -3.8834965465E+00
   -3.8759704013E+00   -3.8684733799E+00   -3.8610053000E+00   -3.8535659649E+00
   -3.8461552503E+00   -3.8387729932E+00   -3.8314190303E+00   -3.8240931989E+00
   -3.8167953350E+00   -3.8095252289E+00   -3.8022827726E+00   -3.7950678105E+00
   -3.7878801874E+00   -3.7807197477E+00   -3.7735863361E+00   -3.7664797625E+00
   -3.7593998978E+00   -3.7523466072E+00   -3.7453197425E+00   -3.7383191554E+00
   -3.7313446978E+00   -3.7243962045E+00   -3.7174735169E+00   -3.7105765234E+00
   -3.7037050827E+00   -3.6968590536E+00   -3.6900382948E+00   -3.6832426650E+00
   -3.6764719813E+00   -3.6697261463E+00   -3.6630050289E+00   -3.6563084945E+00
   -3.6496364083E+00   -3.6429886356E+00   -3.6363650236E+00   -3.6297654316E+00
   -3.6231897577E+00   -3.6166378735E+00   -3.6101096505E+00   -3.6036049603E+00
   -3.5971236745E+00   -3.5906656296E+00   -3.5842307286E+00   -3.5778188573E+00
   -3.5714298934E+00   -3.5650637144E+00   -3.5587201979E+00   -3.5523992156E+00
   -3.5461006152E+00   -3.5398243162E+00   -3.5335702019E+00   -3.5273381557E+00
   -3.5211280607E+00   -3.5149398002E+00   -3.5087732416E+00   -3.5026282604E+00
   -3.4965047709E+00   -3.4904026618E+00   -3.4843218217E+00   -3.4782621395E+00
   -3.4722235038E+00   -3.4662057811E+00   -3.4602088666E+00   -3.4542326726E+00
   -3.4482770930E+00   -3.4423420216E+00   -3.4364273525E+00   -3.4305329794E+00
   -3.4246587713E+00   -3.4188046353E+00   -3.4129704849E+00   -3.4071562191E+00
   -3.4013617365E+00   -3.3955869361E+00   -3.3898317167E+00   -3.3840959528E+00
   -3.3783795559E+00   -3.3726824441E+00   -3.3670045208E+00   -3.3613456897E+00
   -3.3557058543E+00   -3.3500849181E+00   -3.3444827640E+00   -3.3388993014E+00
   -3.3333344554E+00   -3.3277881341E+00
  </PP_LOCAL>
 <PP_NONLOCAL>
   <PP_BETA.1
       type="real"
       size=" 602"
       columns="4"
       index="1"
       angular_momentum="0"
       cutoff_radius_index=" 286"
       cutoff_radius="    2.8500000000E+00" >
    0.0000000000E+00   -3.7253949003E-02   -7.4476996252E-02   -1.1163826038E-01
   -1.4870690080E-01   -1.8565213822E-01   -2.2244327509E-01   -2.5904971630E-01
   -2.9544098990E-01   -3.3158676800E-01   -3.6745688781E-01   -4.0302137285E-01
   -4.3825045443E-01   -4.7311459324E-01   -5.0758450126E-01   -5.4163116384E-01
   -5.7522586208E-01   -6.0834019545E-01   -6.4094610468E-01   -6.7301589489E-01
   -7.0452225903E-01   -7.3543830156E-01   -7.6573756240E-01   -7.9539404111E-01
   -8.2438222133E-01   -8.5267709548E-01   -8.8025418955E-01   -9.0708958825E-01
   -9.3315996022E-01   -9.5844258335E-01   -9.8291537030E-01   -1.0065568940E+00
   -1.0293464133E+00   -1.0512638987E+00   -1.0722900575E+00   -1.0924063598E+00
   -1.1115950633E+00   -1.1298392392E+00   -1.1471227964E+00   -1.1634305063E+00
   -1.1787480276E+00   -1.1930619297E+00   -1.2063597164E+00   -1.2186298488E+00
   -1.2298617672E+00   -1.2400459135E+00   -1.2491737517E+00   -1.2572377877E+00
   -1.2642315895E+00   -1.2701498055E+00   -1.2749881811E+00   -1.2787435741E+00
   -1.2814139738E+00   -1.2829985109E+00   -1.2834974703E+00   -1.2829123077E+00
   -1.2812456506E+00   -1.2785013175E+00   -1.2746843134E+00   -1.2698008471E+00
   -1.2638583233E+00   -1.2568653547E+00   -1.2488317560E+00   -1.2397685426E+00
   -1.2296879327E+00   -1.2186033356E+00   -1.2065293465E+00   -1.1934817409E+00
   -1.1794774587E+00   -1.1645345932E+00   -1.1486723760E+00   -1.1319111598E+00
   -1.1142723983E+00   -1.0957786256E+00   -1.0764534325E+00   -1.0563214418E+00
   -1.0354082804E+00   -1.0137405476E+00   -9.9134578627E-01   -9.6825244827E-01
   -9.4448985902E-01   -9.2008817998E-01   -8.9507836938E-01   -8.6949214105E-01
   -8.4336192145E-01   -8.1672080512E-01   -7.8960250834E-01   -7.6204132132E-01
   -7.3407205887E-01   -7.0573000967E-01   -6.7705088417E-01   -6.4807076140E-01
   -6.1882603455E-01   -5.8935335566E-01   -5.5968958616E-01   -5.2987173482E-01
   -4.9993687843E-01   -4.6992213280E-01   -4.3986458361E-01   -4.0980122739E-01
   -3.7976891274E-01   -3.4980428672E-01   -3.1994377112E-01   -2.9022336876E-01
   -2.6067873728E-01   -2.3134509132E-01   -2.0225714664E-01   -1.7344914239E-01
   -1.4495456328E-01   -1.1680625603E-01   -8.9036360953E-02   -6.1676304447E-02
   -3.4756654682E-02   -8.3069800381E-03    1.7644000468E-02    4.3068441327E-02
    6.7939602600E-02    9.2231923217E-02    1.1592084615E-01    1.3898274307E-01
    1.6139556414E-01    1.8313832465E-01    2.0419108994E-01    2.2453540203E-01
    2.4415419881E-01    2.6303147583E-01    2.8115267591E-01    2.9850483946E-01
    3.1507604362E-01    3.3085588895E-01    3.4583561411E-01    3.6000745010E-01
    3.7336534392E-01    3.8590474025E-01    3.9762203068E-01    4.0851560680E-01
    4.1858497836E-01    4.2783085090E-01    4.3625584025E-01    4.4386338571E-01