<UPF version="2.0.1">
  <PP_INFO>

 This pseudopotential file has been produced using the code
 ONCVPSP  (Optimized Norm-Conservinng Vanderbilt PSeudopotential)
 scalar-relativistic version 2.1.1, 03/26/2014 by D. R. Hamann
 The code is available through a link at URL www.mat-simresearch.com.
 Documentation with the package provides a full discription of the
 input data below.


 While it is not required under the terms of the GNU GPL, it is
 suggested that you cite D. R. Hamann, Phys. Rev. B 88, 085117 (2013)
 in any publication using these pseudopotentials.

    <PP_INPUTFILE>
# ATOM AND REFERENCE CONFIGURATION
# atsym  z    nc    nv    iexc   psfile
  Ta 73.00    10     4     4      upf
#
#   n    l    f        energy (Ha)
    1    0    2.00
    2    0    2.00
    2    1    6.00
    3    0    2.00
    3    1    6.00
    3    2   10.00
    4    0    2.00
    4    1    6.00
    4    2   10.00
    4    3   14.00
    5    0    2.00
    5    1    6.00
    6    0    2.00
    5    2    3.00
#
# PSEUDOPOTENTIAL AND OPTIMIZATION
# lmax
    3
#
#   l,   rc,     ep,   ncon, nbas, qcut
    0   2.22696  -2.68280    5    8   6.69990
    1   2.04856  -1.44789    5    8   7.69760
    2   2.09802  -0.13196    5    8   6.60317
    3   3.30118   0.09129    5    8   6.42453
#
# LOCAL POTENTIAL
# lloc, lpopt,  rc(5),   dvloc0
    4    5   1.65272      0.00000
#
# VANDERBILT-KLEINMAN-BYLANDER PROJECTORs
# l, nproj, debl
    0    2   2.48279
    1    2   1.39677
    2    2   1.00166
    3    2   1.37895
#
# MODEL CORE CHARGE
# icmod, fcfact
    0   0.00000
#
# LOG DERIVATIVE ANALYSIS
# epsh1, epsh2, depsh
   -5.00    3.00    0.02
#
# OUTPUT GRID
# rlmax, drl
    6.00    0.01
#
# TEST CONFIGURATIONS
# ncnf
    0
# nvcnf
#   n    l    f
    </PP_INPUTFILE>
  </PP_INFO>
  <!--                               -->
  <!-- END OF HUMAN READABLE SECTION -->
  <!--                               -->
    <PP_HEADER
       generated="Generated using ONCVPSP code by D. R. Hamann"
       author="anonymous"
       date="241015"
       comment=""
       element="Ta"
       pseudo_type="NC"
       relativistic="scalar"
       is_ultrasoft="F"
       is_paw="F"
       is_coulomb="F"
       has_so="F"
       has_wfc="F"
       has_gipaw="T"
       core_correction="F"
       functional="PBE"
       z_valence="   13.00"
       total_psenergy="  -5.82664599803E+01"
       rho_cutoff="   6.01000000000E+00"
       l_max="3"
       l_local="-1"
       mesh_size="   602"
       number_of_wfc="0"
       number_of_proj="8"/>
 <PP_MESH>
   <PP_R type="real"  size=" 602" columns="8">
    0.0000    0.0100    0.0200    0.0300    0.0400    0.0500    0.0600    0.0700
    0.0800    0.0900    0.1000    0.1100    0.1200    0.1300    0.1400    0.1500
    0.1600    0.1700    0.1800    0.1900    0.2000    0.2100    0.2200    0.2300
    0.2400    0.2500    0.2600    0.2700    0.2800    0.2900    0.3000    0.3100
    0.3200    0.3300    0.3400    0.3500    0.3600    0.3700    0.3800    0.3900
    0.4000    0.4100    0.4200    0.4300    0.4400    0.4500    0.4600    0.4700
    0.4800    0.4900    0.5000    0.5100    0.5200    0.5300    0.5400    0.5500
    0.5600    0.5700    0.5800    0.5900    0.6000    0.6100    0.6200    0.6300
    0.6400    0.6500    0.6600    0.6700    0.6800    0.6900    0.7000    0.7100
    0.7200    0.7300    0.7400    0.7500    0.7600    0.7700    0.7800    0.7900
    0.8000    0.8100    0.8200    0.8300    0.8400    0.8500    0.8600    0.8700
    0.8800    0.8900    0.9000    0.9100    0.9200    0.9300    0.9400    0.9500
    0.9600    0.9700    0.9800    0.9900    1.0000    1.0100    1.0200    1.0300
    1.0400    1.0500    1.0600    1.0700    1.0800    1.0900    1.1000    1.1100
    1.1200    1.1300    1.1400    1.1500    1.1600    1.1700    1.1800    1.1900
    1.2000    1.2100    1.2200    1.2300    1.2400    1.2500    1.2600    1.2700
    1.2800    1.2900    1.3000    1.3100    1.3200    1.3300    1.3400    1.3500
    1.3600    1.3700    1.3800    1.3900    1.4000    1.4100    1.4200    1.4300
    1.4400    1.4500    1.4600    1.4700    1.4800    1.4900    1.5000    1.5100
    1.5200    1.5300    1.5400    1.5500    1.5600    1.5700    1.5800    1.5900
    1.6000    1.6100    1.6200    1.6300    1.6400    1.6500    1.6600    1.6700
    1.6800    1.6900    1.7000    1.7100    1.7200    1.7300    1.7400    1.7500
    1.7600    1.7700    1.7800    1.7900    1.8000    1.8100    1.8200    1.8300
    1.8400    1.8500    1.8600    1.8700    1.8800    1.8900    1.9000    1.9100
    1.9200    1.9300    1.9400    1.9500    1.9600    1.9700    1.9800    1.9900
    2.0000    2.0100    2.0200    2.0300    2.0400    2.0500    2.0600    2.0700
    2.0800    2.0900    2.1000    2.1100    2.1200    2.1300    2.1400    2.1500
    2.1600    2.1700    2.1800    2.1900    2.2000    2.2100    2.2200    2.2300
    2.2400    2.2500    2.2600    2.2700    2.2800    2.2900    2.3000    2.3100
    2.3200    2.3300    2.3400    2.3500    2.3600    2.3700    2.3800    2.3900
    2.4000    2.4100    2.4200    2.4300    2.4400    2.4500    2.4600    2.4700
    2.4800    2.4900    2.5000    2.5100    2.5200    2.5300    2.5400    2.5500
    2.5600    2.5700    2.5800    2.5900    2.6000    2.6100    2.6200    2.6300
    2.6400    2.6500    2.6600    2.6700    2.6800    2.6900    2.7000    2.7100
    2.7200    2.7300    2.7400    2.7500    2.7600    2.7700    2.7800    2.7900
    2.8000    2.8100    2.8200    2.8300    2.8400    2.8500    2.8600    2.8700
    2.8800    2.8900    2.9000    2.9100    2.9200    2.9300    2.9400    2.9500
    2.9600    2.9700    2.9800    2.9900    3.0000    3.0100    3.0200    3.0300
    3.0400    3.0500    3.0600    3.0700    3.0800    3.0900    3.1000    3.1100
    3.1200    3.1300    3.1400    3.1500    3.1600    3.1700    3.1800    3.1900
    3.2000    3.2100    3.2200    3.2300    3.2400    3.2500    3.2600    3.2700
    3.2800    3.2900    3.3000    3.3100    3.3200    3.3300    3.3400    3.3500
    3.3600    3.3700    3.3800    3.3900    3.4000    3.4100    3.4200    3.4300
    3.4400    3.4500    3.4600    3.4700    3.4800    3.4900    3.5000    3.5100
    3.5200    3.5300    3.5400    3.5500    3.5600    3.5700    3.5800    3.5900
    3.6000    3.6100    3.6200    3.6300    3.6400    3.6500    3.6600    3.6700
    3.6800    3.6900    3.7000    3.7100    3.7200    3.7300    3.7400    3.7500
    3.7600    3.7700    3.7800    3.7900    3.8000    3.8100    3.8200    3.8300
    3.8400    3.8500    3.8600    3.8700    3.8800    3.8900    3.9000    3.9100
    3.9200    3.9300    3.9400    3.9500    3.9600    3.9700    3.9800    3.9900
    4.0000    4.0100    4.0200    4.0300    4.0400    4.0500    4.0600    4.0700
    4.0800    4.0900    4.1000    4.1100    4.1200    4.1300    4.1400    4.1500
    4.1600    4.1700    4.1800    4.1900    4.2000    4.2100    4.2200    4.2300
    4.2400    4.2500    4.2600    4.2700    4.2800    4.2900    4.3000    4.3100
    4.3200    4.3300    4.3400    4.3500    4.3600    4.3700    4.3800    4.3900
    4.4000    4.4100    4.4200    4.4300    4.4400    4.4500    4.4600    4.4700
    4.4800    4.4900    4.5000    4.5100    4.5200    4.5300    4.5400    4.5500
    4.5600    4.5700    4.5800    4.5900    4.6000    4.6100    4.6200    4.6300
    4.6400    4.6500    4.6600    4.6700    4.6800    4.6900    4.7000    4.7100
    4.7200    4.7300    4.7400    4.7500    4.7600    4.7700    4.7800    4.7900
    4.8000    4.8100    4.8200    4.8300    4.8400    4.8500    4.8600    4.8700
    4.8800    4.8900    4.9000    4.9100    4.9200    4.9300    4.9400    4.9500
    4.9600    4.9700    4.9800    4.9900    5.0000    5.0100    5.0200    5.0300
    5.0400    5.0500    5.0600    5.0700    5.0800    5.0900    5.1000    5.1100
    5.1200    5.1300    5.1400    5.1500    5.1600    5.1700    5.1800    5.1900
    5.2000    5.2100    5.2200    5.2300    5.2400    5.2500    5.2600    5.2700
    5.2800    5.2900    5.3000    5.3100    5.3200    5.3300    5.3400    5.3500
    5.3600    5.3700    5.3800    5.3900    5.4000    5.4100    5.4200    5.4300
    5.4400    5.4500    5.4600    5.4700    5.4800    5.4900    5.5000    5.5100
    5.5200    5.5300    5.5400    5.5500    5.5600    5.5700    5.5800    5.5900
    5.6000    5.6100    5.6200    5.6300    5.6400    5.6500    5.6600    5.6700
    5.6800    5.6900    5.7000    5.7100    5.7200    5.7300    5.7400    5.7500
    5.7600    5.7700    5.7800    5.7900    5.8000    5.8100    5.8200    5.8300
    5.8400    5.8500    5.8600    5.8700    5.8800    5.8900    5.9000    5.9100
    5.9200    5.9300    5.9400    5.9500    5.9600    5.9700    5.9800    5.9900
    6.0000    6.0100
   </PP_R>
   <PP_RAB type="real"  size=" 602" columns="8">
    0.0100    0.0100    0.0100    0.0100    0.0100    0.0100    0.0100    0.0100
    0.0100    0.0100    0.0100    0.0100    0.0100    0.0100    0.0100    0.0100
    0.0100    0.0100    0.0100    0.0100    0.0100    0.0100    0.0100    0.0100
    0.0100    0.0100    0.0100    0.0100    0.0100    0.0100    0.0100    0.0100
    0.0100    0.0100    0.0100    0.0100    0.0100    0.0100    0.0100    0.0100
    0.0100    0.0100    0.0100    0.0100    0.0100    0.0100    0.0100    0.0100
    0.0100    0.0100    0.0100    0.0100    0.0100    0.0100    0.0100    0.0100
    0.0100    0.0100    0.0100    0.0100    0.0100    0.0100    0.0100    0.0100
    0.0100    0.0100    0.0100    0.0100    0.0100    0.0100    0.0100    0.0100
    0.0100    0.0100    0.0100    0.0100    0.0100    0.0100    0.0100    0.0100
    0.0100    0.0100    0.0100    0.0100    0.0100    0.0100    0.0100    0.0100
    0.0100    0.0100    0.0100    0.0100    0.0100    0.0100    0.0100    0.0100
    0.0100    0.0100    0.0100    0.0100    0.0100    0.0100    0.0100    0.0100
    0.0100    0.0100    0.0100    0.0100    0.0100    0.0100    0.0100    0.0100
    0.0100    0.0100    0.0100    0.0100    0.0100    0.0100    0.0100    0.0100
    0.0100    0.0100    0.0100    0.0100    0.0100    0.0100    0.0100    0.0100
    0.0100    0.0100    0.0100    0.0100    0.0100    0.0100    0.0100    0.0100
    0.0100    0.0100    0.0100    0.0100    0.0100    0.0100    0.0100    0.0100
    0.0100    0.0100    0.0100    0.0100    0.0100    0.0100    0.0100    0.0100
    0.0100    0.0100    0.0100    0.0100    0.0100    0.0100    0.0100    0.0100
    0.0100    0.0100    0.0100    0.0100    0.0100    0.0100    0.0100    0.0100
    0.0100    0.0100    0.0100    0.0100    0.0100    0.0100    0.0100    0.0100
    0.0100    0.0100    0.0100    0.0100    0.0100    0.0100    0.0100    0.0100
    0.0100    0.0100    0.0100    0.0100    0.0100    0.0100    0.0100    0.0100
    0.0100    0.0100    0.0100    0.0100    0.0100    0.0100    0.0100    0.0100
    0.0100    0.0100    0.0100    0.0100    0.0100    0.0100    0.0100    0.0100
    0.0100    0.0100    0.0100    0.0100    0.0100    0.0100    0.0100    0.0100
    0.0100    0.0100    0.0100    0.0100    0.0100    0.0100    0.0100    0.0100
    0.0100    0.0100    0.0100    0.0100    0.0100    0.0100    0.0100    0.0100
    0.0100    0.0100    0.0100    0.0100    0.0100    0.0100    0.0100    0.0100
    0.0100    0.0100    0.0100    0.0100    0.0100    0.0100    0.0100    0.0100
    0.0100    0.0100    0.0100    0.0100    0.0100    0.0100    0.0100    0.0100
    0.0100    0.0100    0.0100    0.0100    0.0100    0.0100    0.0100    0.0100
    0.0100    0.0100    0.0100    0.0100    0.0100    0.0100    0.0100    0.0100
    0.0100    0.0100    0.0100    0.0100    0.0100    0.0100    0.0100    0.0100
    0.0100    0.0100    0.0100    0.0100    0.0100    0.0100    0.0100    0.0100
    0.0100    0.0100    0.0100    0.0100    0.0100    0.0100    0.0100    0.0100
    0.0100    0.0100    0.0100    0.0100    0.0100    0.0100    0.0100    0.0100
    0.0100    0.0100    0.0100    0.0100    0.0100    0.0100    0.0100    0.0100
    0.0100    0.0100    0.0100    0.0100    0.0100    0.0100    0.0100    0.0100
    0.0100    0.0100    0.0100    0.0100    0.0100    0.0100    0.0100    0.0100
    0.0100    0.0100    0.0100    0.0100    0.0100    0.0100    0.0100    0.0100
    0.0100    0.0100    0.0100    0.0100    0.0100    0.0100    0.0100    0.0100
    0.0100    0.0100    0.0100    0.0100    0.0100    0.0100    0.0100    0.0100
    0.0100    0.0100    0.0100    0.0100    0.0100    0.0100    0.0100    0.0100
    0.0100    0.0100    0.0100    0.0100    0.0100    0.0100    0.0100    0.0100
    0.0100    0.0100    0.0100    0.0100    0.0100    0.0100    0.0100    0.0100
    0.0100    0.0100    0.0100    0.0100    0.0100    0.0100    0.0100    0.0100
    0.0100    0.0100    0.0100    0.0100    0.0100    0.0100    0.0100    0.0100
    0.0100    0.0100    0.0100    0.0100    0.0100    0.0100    0.0100    0.0100
    0.0100    0.0100    0.0100    0.0100    0.0100    0.0100    0.0100    0.0100
    0.0100    0.0100    0.0100    0.0100    0.0100    0.0100    0.0100    0.0100
    0.0100    0.0100    0.0100    0.0100    0.0100    0.0100    0.0100    0.0100
    0.0100    0.0100    0.0100    0.0100    0.0100    0.0100    0.0100    0.0100
    0.0100    0.0100    0.0100    0.0100    0.0100    0.0100    0.0100    0.0100
    0.0100    0.0100    0.0100    0.0100    0.0100    0.0100    0.0100    0.0100
    0.0100    0.0100    0.0100    0.0100    0.0100    0.0100    0.0100    0.0100
    0.0100    0.0100    0.0100    0.0100    0.0100    0.0100    0.0100    0.0100
    0.0100    0.0100    0.0100    0.0100    0.0100    0.0100    0.0100    0.0100
    0.0100    0.0100    0.0100    0.0100    0.0100    0.0100    0.0100    0.0100
    0.0100    0.0100    0.0100    0.0100    0.0100    0.0100    0.0100    0.0100
    0.0100    0.0100    0.0100    0.0100    0.0100    0.0100    0.0100    0.0100
    0.0100    0.0100    0.0100    0.0100    0.0100    0.0100    0.0100    0.0100
    0.0100    0.0100    0.0100    0.0100    0.0100    0.0100    0.0100    0.0100
    0.0100    0.0100    0.0100    0.0100    0.0100    0.0100    0.0100    0.0100
    0.0100    0.0100    0.0100    0.0100    0.0100    0.0100    0.0100    0.0100
    0.0100    0.0100    0.0100    0.0100    0.0100    0.0100    0.0100    0.0100
    0.0100    0.0100    0.0100    0.0100    0.0100    0.0100    0.0100    0.0100
    0.0100    0.0100    0.0100    0.0100    0.0100    0.0100    0.0100    0.0100
    0.0100    0.0100    0.0100    0.0100    0.0100    0.0100    0.0100    0.0100
    0.0100    0.0100    0.0100    0.0100    0.0100    0.0100    0.0100    0.0100
    0.0100    0.0100    0.0100    0.0100    0.0100    0.0100    0.0100    0.0100
    0.0100    0.0100    0.0100    0.0100    0.0100    0.0100    0.0100    0.0100
    0.0100    0.0100    0.0100    0.0100    0.0100    0.0100    0.0100    0.0100
    0.0100    0.0100    0.0100    0.0100    0.0100    0.0100    0.0100    0.0100
    0.0100    0.0100
   </PP_RAB>
 </PP_MESH>
  <PP_LOCAL type="real"  size=" 602" columns="4">
   -3.6044147831E+01   -3.6043770378E+01   -3.6042877867E+01   -3.6041189501E+01
   -3.6038424487E+01   -3.6034227335E+01   -3.6028198549E+01   -3.6019925936E+01
   -3.6009012929E+01   -3.5995101332E+01   -3.5977887177E+01   -3.5957129518E+01
   -3.5932652932E+01   -3.5904344999E+01   -3.5872150261E+01   -3.5836062099E+01
   -3.5796113735E+01   -3.5752369289E+01   -3.5704915508E+01   -3.5653854537E+01
   -3.5599297884E+01   -3.5541361592E+01   -3.5480162533E+01   -3.5415815688E+01
   -3.5348432252E+01   -3.5278118415E+01   -3.5204974647E+01   -3.5129095396E+01
   -3.5050569050E+01   -3.4969478102E+01   -3.4885899449E+01   -3.4799904751E+01
   -3.4711560832E+01   -3.4620930097E+01   -3.4528070931E+01   -3.4433038062E+01
   -3.4335882925E+01   -3.4236653961E+01   -3.4135396899E+01   -3.4032155000E+01
   -3.3926969266E+01   -3.3819878617E+01   -3.3710920045E+01   -3.3600128740E+01
   -3.3487538201E+01   -3.3373180318E+01   -3.3257085447E+01   -3.3139282462E+01
   -3.3019798808E+01   -3.2898660541E+01   -3.2775892369E+01   -3.2651517664E+01
   -3.2525558509E+01   -3.2398035743E+01   -3.2268968965E+01   -3.2138376616E+01
   -3.2006276008E+01   -3.1872683405E+01   -3.1737614092E+01   -3.1601082479E+01
   -3.1463102199E+01   -3.1323686255E+01   -3.1182847141E+01   -3.1040597031E+01
   -3.0896947946E+01   -3.0751911962E+01   -3.0605501416E+01   -3.0457729126E+01
   -3.0308608660E+01   -3.0158154546E+01   -3.0006382524E+01   -2.9853309760E+01
   -2.9698955159E+01   -2.9543339523E+01   -2.9386485764E+01   -2.9228419099E+01
   -2.9069167198E+01   -2.8908760322E+01   -2.8747231390E+01   -2.8584616094E+01
   -2.8420952892E+01   -2.8256282981E+01   -2.8090650257E+01   -2.7924101230E+01
   -2.7756684905E+01   -2.7588452634E+01   -2.7419457939E+01   -2.7249756313E+01
   -2.7079405011E+01   -2.6908462814E+01   -2.6736989797E+01   -2.6565047081E+01
   -2.6392696607E+01   -2.6220000897E+01   -2.6047022813E+01   -2.5873825344E+01
   -2.5700471403E+01   -2.5527023633E+01   -2.5353544239E+01   -2.5180094827E+01
   -2.5006736308E+01   -2.4833528680E+01   -2.4660530968E+01   -2.4487801146E+01
   -2.4315396058E+01   -2.4143371365E+01   -2.3971781556E+01   -2.3800679644E+01
   -2.3630117406E+01   -2.3460145281E+01   -2.3290812451E+01   -2.3122166627E+01
   -2.2954254066E+01   -2.2787119726E+01   -2.2620807315E+01   -2.2455359056E+01
   -2.2290815677E+01   -2.2127216655E+01   -2.1964600348E+01   -2.1803003340E+01
   -2.1642460984E+01   -2.1483007494E+01   -2.1324675630E+01   -2.1167496569E+01
   -2.1011500439E+01   -2.0856716122E+01   -2.0703170665E+01   -2.0550890171E+01
   -2.0399899545E+01   -2.0250221746E+01   -2.0101878917E+01   -1.9954891852E+01
   -1.9809279472E+01   -1.9665060041E+01   -1.9522250073E+01   -1.9380864534E+01
   -1.9240917904E+01   -1.9102422231E+01   -1.8965388856E+01   -1.8829827965E+01
   -1.8695747577E+01   -1.8563155533E+01   -1.8432057293E+01   -1.8302457524E+01
   -1.8174359819E+01   -1.8047765535E+01   -1.7922676201E+01   -1.7799090388E+01
   -1.7677006682E+01   -1.7556421711E+01   -1.7437330834E+01   -1.7319728754E+01
   -1.7203607625E+01   -1.7088960180E+01   -1.6975775606E+01   -1.6864044001E+01
   -1.6753752232E+01   -1.6644887376E+01   -1.6537434073E+01   -1.6431376282E+01
   -1.6326696333E+01   -1.6223375011E+01   -1.6121392221E+01   -1.6020725515E+01
   -1.5921352137E+01   -1.5823246529E+01   -1.5726382462E+01   -1.5630733523E+01
   -1.5536272465E+01   -1.5442974529E+01   -1.5350814466E+01   -1.5259769276E+01
   -1.5169815564E+01   -1.5080931885E+01   -1.4993096586E+01   -1.4906289587E+01
   -1.4820490903E+01   -1.4735681645E+01   -1.4651843412E+01   -1.4568958356E+01
   -1.4487009576E+01   -1.4405980130E+01   -1.4325854527E+01   -1.4246616619E+01
   -1.4168252218E+01   -1.4090745896E+01   -1.4014084482E+01   -1.3938253673E+01
   -1.3863240723E+01   -1.3789032534E+01   -1.3715616692E+01   -1.3642981188E+01
   -1.3571113890E+01   -1.3500003709E+01   -1.3429638802E+01   -1.3360008658E+01
   -1.3291102133E+01   -1.3222908742E+01   -1.3155418035E+01   -1.3088619565E+01
   -1.3022503330E+01   -1.2957059016E+01   -1.2892276760E+01   -1.2828146470E+01
   -1.2764658290E+01   -1.2701802428E+01   -1.2639568840E+01   -1.2577948657E+01
   -1.2516932274E+01   -1.2456510956E+01   -1.2396676040E+01   -1.2337418635E+01
   -1.2278730729E+01   -1.2220603609E+01   -1.2163029531E+01   -1.2106000882E+01
   -1.2049509701E+01   -1.1993548904E+01   -1.1938110896E+01   -1.1883188511E+01
   -1.1828774866E+01   -1.1774862572E+01   -1.1721445233E+01   -1.1668516085E+01
   -1.1616068408E+01   -1.1564095993E+01   -1.1512592218E+01   -1.1461550928E+01
   -1.1410966119E+01   -1.1360831350E+01   -1.1311141061E+01   -1.1261889403E+01
   -1.1213070440E+01   -1.1164678793E+01   -1.1116708735E+01   -1.1069154734E+01
   -1.1022011632E+01   -1.0975273914E+01   -1.0928936448E+01   -1.0882994238E+01
   -1.0837441958E+01   -1.0792274824E+01   -1.0747488018E+01   -1.0703076408E+01
   -1.0659035520E+01   -1.0615360710E+01   -1.0572047048E+01   -1.0529090328E+01
   -1.0486486070E+01   -1.0444229594E+01   -1.0402316884E+01   -1.0360743653E+01
   -1.0319505442E+01   -1.0278598424E+01   -1.0238018513E+01   -1.0197761436E+01
   -1.0157823562E+01   -1.0118201007E+01   -1.0078889657E+01   -1.0039886075E+01
   -1.0001186570E+01   -9.9627872060E+00   -9.9246846919E+00   -9.8868755316E+00
   -9.8493559954E+00   -9.8121228824E+00   -9.7751729018E+00   -9.7385025362E+00
   -9.7021086427E+00   -9.6659881379E+00   -9.6301377212E+00   -9.5945542791E+00
   -9.5592349345E+00   -9.5241766080E+00   -9.4893761907E+00   -9.4548310080E+00
   -9.4205381945E+00   -9.3864946553E+00   -9.3526978829E+00   -9.3191451641E+00
   -9.2858336182E+00   -9.2527606834E+00   -9.2199238598E+00   -9.1873204884E+00
   -9.1549479311E+00   -9.1228038939E+00   -9.0908859201E+00   -9.0591913519E+00
   -9.0277180216E+00   -8.9964636158E+00   -8.9654256922E+00   -8.9346019601E+00
   -8.9039903175E+00   -8.8735885447E+00   -8.8433942187E+00   -8.8134054327E+00
   -8.7836200768E+00   -8.7540359382E+00   -8.7246509505E+00   -8.6954632155E+00
   -8.6664707265E+00   -8.6376712958E+00   -8.6090631724E+00   -8.5806444627E+00
   -8.5524131922E+00   -8.5243674156E+00   -8.4965054480E+00   -8.4688254733E+00
   -8.4413255454E+00   -8.4140039750E+00   -8.3868590952E+00   -8.3598891776E+00
   -8.3330923170E+00   -8.3064670422E+00   -8.2800117087E+00   -8.2537246225E+00
   -8.2276040757E+00   -8.2016486323E+00   -8.1758567258E+00   -8.1502267034E+00
   -8.1247570295E+00   -8.0994463027E+00   -8.0742930312E+00   -8.0492956102E+00
   -8.0244526488E+00   -7.9997627843E+00   -7.9752245958E+00   -7.9508365325E+00
   -7.9265973217E+00   -7.9025056445E+00   -7.8785601476E+00   -7.8547593385E+00
   -7.8311020387E+00   -7.8075869787E+00   -7.7842128689E+00   -7.7609782792E+00
   -7.7378821035E+00   -7.7149231263E+00   -7.6921001190E+00   -7.6694117171E+00
   -7.6468568665E+00   -7.6244344106E+00   -7.6021431789E+00   -7.5799818757E+00
   -7.5579494798E+00   -7.5360448982E+00   -7.5142670156E+00   -7.4926146084E+00
   -7.4710866707E+00   -7.4496821769E+00   -7.4284000642E+00   -7.4072391851E+00
   -7.3861985318E+00   -7.3652771498E+00   -7.3444740263E+00   -7.3237880938E+00
   -7.3032183269E+00   -7.2827638451E+00   -7.2624236830E+00   -7.2421968569E+00
   -7.2220823105E+00   -7.2020792384E+00   -7.1821867206E+00   -7.1624038371E+00
   -7.1427295600E+00   -7.1231630886E+00   -7.1037035695E+00   -7.0843501256E+00
   -7.0651018189E+00   -7.0459577835E+00   -7.0269172523E+00   -7.0079793895E+00
   -6.9891433517E+00   -6.9704081972E+00   -6.9517732443E+00   -6.9332376964E+00
   -6.9148007568E+00   -6.8964615555E+00   -6.8782193405E+00   -6.8600734027E+00
   -6.8420229827E+00   -6.8240673115E+00   -6.8062055337E+00   -6.7884370333E+00
   -6.7707610864E+00   -6.7531769693E+00   -6.7356838981E+00   -6.7182811675E+00
   -6.7009681456E+00   -6.6837441423E+00   -6.6666084678E+00   -6.6495603329E+00
   -6.6325991608E+00   -6.6157243077E+00   -6.5989351158E+00   -6.5822309049E+00
   -6.5656109573E+00   -6.5490747343E+00   -6.5326216090E+00   -6.5162509543E+00
   -6.4999620925E+00   -6.4837544018E+00   -6.4676273433E+00   -6.4515803194E+00
   -6.4356127326E+00   -6.4197239140E+00   -6.4039133196E+00   -6.3881804154E+00
   -6.3725246317E+00   -6.3569453989E+00   -6.3414420633E+00   -6.3260141410E+00
   -6.3106611084E+00   -6.2953824223E+00   -6.2801775398E+00   -6.2650458272E+00
   -6.2499868448E+00   -6.2350000847E+00   -6.2200850291E+00   -6.2052411604E+00
   -6.1904678696E+00   -6.1757647461E+00   -6.1611313027E+00   -6.1465670460E+00
   -6.1320714825E+00   -6.1176440320E+00   -6.1032842991E+00   -6.0889918222E+00
   -6.0747661311E+00   -6.0606067551E+00   -6.0465131472E+00   -6.0324849138E+00
   -6.0185216236E+00   -6.0046228283E+00   -5.9907880793E+00   -5.9770168663E+00
   -5.9633087854E+00   -5.9496634397E+00   -5.9360804018E+00   -5.9225592439E+00
   -5.9090994971E+00   -5.8957007349E+00   -5.8823625987E+00   -5.8690846809E+00
   -5.8558665739E+00   -5.8427078537E+00   -5.8296080610E+00   -5.8165668782E+00
   -5.8035839166E+00   -5.7906587877E+00   -5.7777911028E+00   -5.7649804014E+00
   -5.7522263682E+00   -5.7395286461E+00   -5.7268868646E+00   -5.7143006532E+00
   -5.7017696040E+00   -5.6892933443E+00   -5.6768715677E+00   -5.6645039209E+00
   -5.6521900506E+00   -5.6399296036E+00   -5.6277221481E+00   -5.6155674231E+00
   -5.6034650937E+00   -5.5914148232E+00   -5.5794162748E+00   -5.5674690758E+00
   -5.5555728874E+00   -5.5437274329E+00   -5.5319323912E+00   -5.5201874412E+00
   -5.5084922617E+00   -5.4968464662E+00   -5.4852497991E+00   -5.4737019664E+00
   -5.4622026620E+00   -5.4507515796E+00   -5.4393483993E+00   -5.4279927689E+00
   -5.4166844586E+00   -5.4054231764E+00   -5.3942086302E+00   -5.3830405283E+00
   -5.3719185453E+00   -5.3608423870E+00   -5.3498118165E+00   -5.3388265553E+00
   -5.3278863251E+00   -5.3169908477E+00   -5.3061397978E+00   -5.2953329258E+00
   -5.2845699923E+00   -5.2738507321E+00   -5.2631748797E+00   -5.2525421697E+00
   -5.2419522822E+00   -5.2314049992E+00   -5.2209000838E+00   -5.2104372832E+00
   -5.2000163443E+00   -5.1896370140E+00   -5.1792989822E+00   -5.1690020503E+00
   -5.1587459891E+00   -5.1485305573E+00   -5.1383555136E+00   -5.1282206167E+00
   -5.1181255705E+00   -5.1080701848E+00   -5.0980542421E+00   -5.0880775123E+00
   -5.0781397655E+00   -5.0682407716E+00   -5.0583802525E+00   -5.0485580155E+00
   -5.0387738593E+00   -5.0290275647E+00   -5.0193189124E+00   -5.0096476828E+00
   -5.0000136199E+00   -4.9904165186E+00   -4.9808561978E+00   -4.9713324483E+00
   -4.9618450610E+00   -4.9523938267E+00   -4.9429785150E+00   -4.9335988992E+00
   -4.9242548216E+00   -4.9149460830E+00   -4.9056724838E+00   -4.8964338246E+00
   -4.8872299043E+00   -4.8780604662E+00   -4.8689253791E+00   -4.8598244528E+00
   -4.8507574974E+00   -4.8417243225E+00   -4.8327247381E+00   -4.8237585152E+00
   -4.8148254863E+00   -4.8059254918E+00   -4.7970583502E+00   -4.7882238804E+00
   -4.7794219009E+00   -4.7706522198E+00   -4.7619146201E+00   -4.7532089767E+00
   -4.7445351167E+00   -4.7358928672E+00   -4.7272820555E+00   -4.7187025085E+00
   -4.7101540165E+00   -4.7016364280E+00   -4.6931495988E+00   -4.6846933640E+00
   -4.6762675589E+00   -4.6678720186E+00   -4.6595065766E+00   -4.6511710161E+00
   -4.6428652337E+00   -4.6345890721E+00   -4.6263423743E+00   -4.6181249832E+00
   -4.6099367415E+00   -4.6017774738E+00   -4.5936470069E+00   -4.5855452277E+00
   -4.5774719863E+00   -4.5694271328E+00   -4.5614105174E+00   -4.5534219903E+00
   -4.5454613717E+00   -4.5375285216E+00   -4.5296233210E+00   -4.5217456270E+00
   -4.5138952968E+00   -4.5060721875E+00   -4.4982761563E+00   -4.4905070236E+00
   -4.4827646720E+00   -4.4750489811E+00   -4.4673598145E+00   -4.4596970362E+00
   -4.4520605099E+00   -4.4444500994E+00   -4.4368656298E+00   -4.4293069960E+00
   -4.4217740803E+00   -4.4142667530E+00   -4.4067848843E+00   -4.3993283441E+00
   -4.3918970028E+00   -4.3844906936E+00   -4.3771093146E+00   -4.3697527552E+00
   -4.3624208915E+00   -4.3551135997E+00   -4.3478307561E+00   -4.3405722368E+00
   -4.3333378873E+00   -4.3261275998E+00
  </PP_LOCAL>
 <PP_NONLOCAL>
   <PP_BETA.1
       type="real"
       size=" 602"
       columns="4"
       index="1"
       angular_momentum="0"
       cutoff_radius_index=" 334"
       cutoff_radius="    3.3300000000E+00" >
    0.0000000000E+00   -5.2542230695E-02   -1.0501802171E-01   -1.5736098116E-01
   -2.0950481301E-01   -2.6138336584E-01   -3.1293068247E-01   -3.6408105086E-01
   -4.1476905646E-01   -4.6492963646E-01   -5.1449813595E-01   -5.6341036645E-01
   -6.1160266690E-01   -6.5901196731E-01   -7.0557585531E-01   -7.5123264561E-01
   -7.9592145264E-01   -8.3958226625E-01   -8.8215603072E-01   -9.2358472688E-01
   -9.6381145756E-01   -1.0027805360E+00   -1.0404375774E+00   -1.0767295934E+00
   -1.1116050892E+00   -1.1450141630E+00   -1.1769086086E+00   -1.2072420183E+00
   -1.2359698893E+00   -1.2630497307E+00   -1.2884411707E+00   -1.3121060654E+00
   -1.3340086080E+00   -1.3541154363E+00   -1.3723957390E+00   -1.3888213652E+00
   -1.4033669238E+00   -1.4160098891E+00   -1.4267306983E+00   -1.4355128459E+00
   -1.4423429746E+00   -1.4472109635E+00   -1.4501100083E+00   -1.4510366959E+00
   -1.4499910737E+00   -1.4469767110E+00   -1.4420007537E+00   -1.4350739719E+00
   -1.4262107960E+00   -1.4154293455E+00   -1.4027514456E+00   -1.3882026436E+00
   -1.3718122036E+00   -1.3536130892E+00   -1.3336419543E+00   -1.3119390963E+00
   -1.2885484184E+00   -1.2635173702E+00   -1.2368968798E+00   -1.2087412729E+00
   -1.1791081805E+00   -1.1480584395E+00   -1.1156559653E+00   -1.0819676408E+00
   -1.0470631688E+00   -1.0110149143E+00   -9.7389776278E-01   -9.3578895201E-01
   -8.9676785287E-01   -8.5691582007E-01   -8.1631598239E-01   -7.7505305794E-01
   -7.3321307418E-01   -6.9088320218E-01   -6.4815151837E-01   -6.0510676891E-01
   -5.6183813181E-01   -5.1843497527E-01   -4.7498662925E-01   -4.3158209909E-01
   -3.8830984011E-01   -3.4525752094E-01   -3.0251176818E-01   -2.6015792154E-01
   -2.1827979165E-01   -1.7695942167E-01   -1.3627685365E-01   -9.6309900495E-02
   -5.7133924590E-02   -1.8821623995E-02    1.8557172898E-02    5.4935682692E-02
    9.0250364336E-02    1.2444117252E-01    1.5745161758E-01    1.8922895348E-01
    2.1972431568E-01    2.4889284518E-01    2.7669379797E-01    3.0309063946E-01
    3.2805099770E-01    3.5154707416E-01    3.7355545434E-01    3.9405712514E-01
    4.1303753015E-01    4.3048653784E-01    4.4639835101E-01    4.6077196197E-01
    4.7361055118E-01    4.8492160198E-01    4.9471671057E-01    5.0301180793E-01
    5.0982694911E-01    5.1518599390E-01    5.1911650168E-01    5.2164983980E-01
    5.2282092253E-01    5.2266787487E-01    5.2123193831E-01    5.1855748323E-01
    5.1469152275E-01    5.0968365356E-01    5.0358589751E-01    4.9645225852E-01
    4.8833873594E-01    4.7930318883E-01    4.6940450057E-01    4.5870304407E-01
    4.4726046069E-01    4.3513837092E-01    4.2239952604E-01    4.0910708229E-01