<UPF version="2.0.1">
  <PP_INFO>

 This pseudopotential file has been produced using the code
 ONCVPSP  (Optimized Norm-Conservinng Vanderbilt PSeudopotential)
 scalar-relativistic version 2.1.1, 03/26/2014 by D. R. Hamann
 The code is available through a link at URL www.mat-simresearch.com.
 Documentation with the package provides a full discription of the
 input data below.


 While it is not required under the terms of the GNU GPL, it is
 suggested that you cite D. R. Hamann, Phys. Rev. B 88, 085117 (2013)
 in any publication using these pseudopotentials.

    <PP_INPUTFILE>
# ATOM AND REFERENCE CONFIGURATION
# atsym  z    nc    nv    iexc   psfile
  W 74.00    10     4     4      upf
#
#   n    l    f        energy (Ha)
    1    0    2.00
    2    0    2.00
    2    1    6.00
    3    0    2.00
    3    1    6.00
    3    2   10.00
    4    0    2.00
    4    1    6.00
    4    2   10.00
    4    3   14.00
    5    0    2.00
    5    1    6.00
    6    0    2.00
    5    2    4.00
#
# PSEUDOPOTENTIAL AND OPTIMIZATION
# lmax
    3
#
#   l,   rc,     ep,   ncon, nbas, qcut
    0   2.02088  -2.90589    5    8   8.03863
    1   1.94984  -1.58765    5    8   6.85549
    2   1.85899  -0.16465    5    8   7.99167
    3   2.75571   0.11616    5    8   6.50849
#
# LOCAL POTENTIAL
# lloc, lpopt,  rc(5),   dvloc0
    4    5   1.59195      0.00000
#
# VANDERBILT-KLEINMAN-BYLANDER PROJECTORs
# l, nproj, debl
    0    2   2.69594
    1    2   1.53763
    2    2   1.11689
    3    2   1.09696
#
# MODEL CORE CHARGE
# icmod, fcfact
    0   0.00000
#
# LOG DERIVATIVE ANALYSIS
# epsh1, epsh2, depsh
   -5.00    3.00    0.02
#
# OUTPUT GRID
# rlmax, drl
    6.00    0.01
#
# TEST CONFIGURATIONS
# ncnf
    0
# nvcnf
#   n    l    f
    </PP_INPUTFILE>
  </PP_INFO>
  <!--                               -->
  <!-- END OF HUMAN READABLE SECTION -->
  <!--                               -->
    <PP_HEADER
       generated="Generated using ONCVPSP code by D. R. Hamann"
       author="anonymous"
       date="241015"
       comment=""
       element="W "
       pseudo_type="NC"
       relativistic="scalar"
       is_ultrasoft="F"
       is_paw="F"
       is_coulomb="F"
       has_so="F"
       has_wfc="F"
       has_gipaw="T"
       core_correction="F"
       functional="PBE"
       z_valence="   14.00"
       total_psenergy="  -6.81337596149E+01"
       rho_cutoff="   6.01000000000E+00"
       l_max="3"
       l_local="-1"
       mesh_size="   602"
       number_of_wfc="0"
       number_of_proj="8"/>
 <PP_MESH>
   <PP_R type="real"  size=" 602" columns="8">
    0.0000    0.0100    0.0200    0.0300    0.0400    0.0500    0.0600    0.0700
    0.0800    0.0900    0.1000    0.1100    0.1200    0.1300    0.1400    0.1500
    0.1600    0.1700    0.1800    0.1900    0.2000    0.2100    0.2200    0.2300
    0.2400    0.2500    0.2600    0.2700    0.2800    0.2900    0.3000    0.3100
    0.3200    0.3300    0.3400    0.3500    0.3600    0.3700    0.3800    0.3900
    0.4000    0.4100    0.4200    0.4300    0.4400    0.4500    0.4600    0.4700
    0.4800    0.4900    0.5000    0.5100    0.5200    0.5300    0.5400    0.5500
    0.5600    0.5700    0.5800    0.5900    0.6000    0.6100    0.6200    0.6300
    0.6400    0.6500    0.6600    0.6700    0.6800    0.6900    0.7000    0.7100
    0.7200    0.7300    0.7400    0.7500    0.7600    0.7700    0.7800    0.7900
    0.8000    0.8100    0.8200    0.8300    0.8400    0.8500    0.8600    0.8700
    0.8800    0.8900    0.9000    0.9100    0.9200    0.9300    0.9400    0.9500
    0.9600    0.9700    0.9800    0.9900    1.0000    1.0100    1.0200    1.0300
    1.0400    1.0500    1.0600    1.0700    1.0800    1.0900    1.1000    1.1100
    1.1200    1.1300    1.1400    1.1500    1.1600    1.1700    1.1800    1.1900
    1.2000    1.2100    1.2200    1.2300    1.2400    1.2500    1.2600    1.2700
    1.2800    1.2900    1.3000    1.3100    1.3200    1.3300    1.3400    1.3500
    1.3600    1.3700    1.3800    1.3900    1.4000    1.4100    1.4200    1.4300
    1.4400    1.4500    1.4600    1.4700    1.4800    1.4900    1.5000    1.5100
    1.5200    1.5300    1.5400    1.5500    1.5600    1.5700    1.5800    1.5900
    1.6000    1.6100    1.6200    1.6300    1.6400    1.6500    1.6600    1.6700
    1.6800    1.6900    1.7000    1.7100    1.7200    1.7300    1.7400    1.7500
    1.7600    1.7700    1.7800    1.7900    1.8000    1.8100    1.8200    1.8300
    1.8400    1.8500    1.8600    1.8700    1.8800    1.8900    1.9000    1.9100
    1.9200    1.9300    1.9400    1.9500    1.9600    1.9700    1.9800    1.9900
    2.0000    2.0100    2.0200    2.0300    2.0400    2.0500    2.0600    2.0700
    2.0800    2.0900    2.1000    2.1100    2.1200    2.1300    2.1400    2.1500
    2.1600    2.1700    2.1800    2.1900    2.2000    2.2100    2.2200    2.2300
    2.2400    2.2500    2.2600    2.2700    2.2800    2.2900    2.3000    2.3100
    2.3200    2.3300    2.3400    2.3500    2.3600    2.3700    2.3800    2.3900
    2.4000    2.4100    2.4200    2.4300    2.4400    2.4500    2.4600    2.4700
    2.4800    2.4900    2.5000    2.5100    2.5200    2.5300    2.5400    2.5500
    2.5600    2.5700    2.5800    2.5900    2.6000    2.6100    2.6200    2.6300
    2.6400    2.6500    2.6600    2.6700    2.6800    2.6900    2.7000    2.7100
    2.7200    2.7300    2.7400    2.7500    2.7600    2.7700    2.7800    2.7900
    2.8000    2.8100    2.8200    2.8300    2.8400    2.8500    2.8600    2.8700
    2.8800    2.8900    2.9000    2.9100    2.9200    2.9300    2.9400    2.9500
    2.9600    2.9700    2.9800    2.9900    3.0000    3.0100    3.0200    3.0300
    3.0400    3.0500    3.0600    3.0700    3.0800    3.0900    3.1000    3.1100
    3.1200    3.1300    3.1400    3.1500    3.1600    3.1700    3.1800    3.1900
    3.2000    3.2100    3.2200    3.2300    3.2400    3.2500    3.2600    3.2700
    3.2800    3.2900    3.3000    3.3100    3.3200    3.3300    3.3400    3.3500
    3.3600    3.3700    3.3800    3.3900    3.4000    3.4100    3.4200    3.4300
    3.4400    3.4500    3.4600    3.4700    3.4800    3.4900    3.5000    3.5100
    3.5200    3.5300    3.5400    3.5500    3.5600    3.5700    3.5800    3.5900
    3.6000    3.6100    3.6200    3.6300    3.6400    3.6500    3.6600    3.6700
    3.6800    3.6900    3.7000    3.7100    3.7200    3.7300    3.7400    3.7500
    3.7600    3.7700    3.7800    3.7900    3.8000    3.8100    3.8200    3.8300
    3.8400    3.8500    3.8600    3.8700    3.8800    3.8900    3.9000    3.9100
    3.9200    3.9300    3.9400    3.9500    3.9600    3.9700    3.9800    3.9900
    4.0000    4.0100    4.0200    4.0300    4.0400    4.0500    4.0600    4.0700
    4.0800    4.0900    4.1000    4.1100    4.1200    4.1300    4.1400    4.1500
    4.1600    4.1700    4.1800    4.1900    4.2000    4.2100    4.2200    4.2300
    4.2400    4.2500    4.2600    4.2700    4.2800    4.2900    4.3000    4.3100
    4.3200    4.3300    4.3400    4.3500    4.3600    4.3700    4.3800    4.3900
    4.4000    4.4100    4.4200    4.4300    4.4400    4.4500    4.4600    4.4700
    4.4800    4.4900    4.5000    4.5100    4.5200    4.5300    4.5400    4.5500
    4.5600    4.5700    4.5800    4.5900    4.6000    4.6100    4.6200    4.6300
    4.6400    4.6500    4.6600    4.6700    4.6800    4.6900    4.7000    4.7100
    4.7200    4.7300    4.7400    4.7500    4.7600    4.7700    4.7800    4.7900
    4.8000    4.8100    4.8200    4.8300    4.8400    4.8500    4.8600    4.8700
    4.8800    4.8900    4.9000    4.9100    4.9200    4.9300    4.9400    4.9500
    4.9600    4.9700    4.9800    4.9900    5.0000    5.0100    5.0200    5.0300
    5.0400    5.0500    5.0600    5.0700    5.0800    5.0900    5.1000    5.1100
    5.1200    5.1300    5.1400    5.1500    5.1600    5.1700    5.1800    5.1900
    5.2000    5.2100    5.2200    5.2300    5.2400    5.2500    5.2600    5.2700
    5.2800    5.2900    5.3000    5.3100    5.3200    5.3300    5.3400    5.3500
    5.3600    5.3700    5.3800    5.3900    5.4000    5.4100    5.4200    5.4300
    5.4400    5.4500    5.4600    5.4700    5.4800    5.4900    5.5000    5.5100
    5.5200    5.5300    5.5400    5.5500    5.5600    5.5700    5.5800    5.5900
    5.6000    5.6100    5.6200    5.6300    5.6400    5.6500    5.6600    5.6700
    5.6800    5.6900    5.7000    5.7100    5.7200    5.7300    5.7400    5.7500
    5.7600    5.7700    5.7800    5.7900    5.8000    5.8100    5.8200    5.8300
    5.8400    5.8500    5.8600    5.8700    5.8800    5.8900    5.9000    5.9100
    5.9200    5.9300    5.9400    5.9500    5.9600    5.9700    5.9800    5.9900
    6.0000    6.0100
   </PP_R>
   <PP_RAB type="real"  size=" 602" columns="8">
    0.0100    0.0100    0.0100    0.0100    0.0100    0.0100    0.0100    0.0100
    0.0100    0.0100    0.0100    0.0100    0.0100    0.0100    0.0100    0.0100
    0.0100    0.0100    0.0100    0.0100    0.0100    0.0100    0.0100    0.0100
    0.0100    0.0100    0.0100    0.0100    0.0100    0.0100    0.0100    0.0100
    0.0100    0.0100    0.0100    0.0100    0.0100    0.0100    0.0100    0.0100
    0.0100    0.0100    0.0100    0.0100    0.0100    0.0100    0.0100    0.0100
    0.0100    0.0100    0.0100    0.0100    0.0100    0.0100    0.0100    0.0100
    0.0100    0.0100    0.0100    0.0100    0.0100    0.0100    0.0100    0.0100
    0.0100    0.0100    0.0100    0.0100    0.0100    0.0100    0.0100    0.0100
    0.0100    0.0100    0.0100    0.0100    0.0100    0.0100    0.0100    0.0100
    0.0100    0.0100    0.0100    0.0100    0.0100    0.0100    0.0100    0.0100
    0.0100    0.0100    0.0100    0.0100    0.0100    0.0100    0.0100    0.0100
    0.0100    0.0100    0.0100    0.0100    0.0100    0.0100    0.0100    0.0100
    0.0100    0.0100    0.0100    0.0100    0.0100    0.0100    0.0100    0.0100
    0.0100    0.0100    0.0100    0.0100    0.0100    0.0100    0.0100    0.0100
    0.0100    0.0100    0.0100    0.0100    0.0100    0.0100    0.0100    0.0100
    0.0100    0.0100    0.0100    0.0100    0.0100    0.0100    0.0100    0.0100
    0.0100    0.0100    0.0100    0.0100    0.0100    0.0100    0.0100    0.0100
    0.0100    0.0100    0.0100    0.0100    0.0100    0.0100    0.0100    0.0100
    0.0100    0.0100    0.0100    0.0100    0.0100    0.0100    0.0100    0.0100
    0.0100    0.0100    0.0100    0.0100    0.0100    0.0100    0.0100    0.0100
    0.0100    0.0100    0.0100    0.0100    0.0100    0.0100    0.0100    0.0100
    0.0100    0.0100    0.0100    0.0100    0.0100    0.0100    0.0100    0.0100
    0.0100    0.0100    0.0100    0.0100    0.0100    0.0100    0.0100    0.0100
    0.0100    0.0100    0.0100    0.0100    0.0100    0.0100    0.0100    0.0100
    0.0100    0.0100    0.0100    0.0100    0.0100    0.0100    0.0100    0.0100
    0.0100    0.0100    0.0100    0.0100    0.0100    0.0100    0.0100    0.0100
    0.0100    0.0100    0.0100    0.0100    0.0100    0.0100    0.0100    0.0100
    0.0100    0.0100    0.0100    0.0100    0.0100    0.0100    0.0100    0.0100
    0.0100    0.0100    0.0100    0.0100    0.0100    0.0100    0.0100    0.0100
    0.0100    0.0100    0.0100    0.0100    0.0100    0.0100    0.0100    0.0100
    0.0100    0.0100    0.0100    0.0100    0.0100    0.0100    0.0100    0.0100
    0.0100    0.0100    0.0100    0.0100    0.0100    0.0100    0.0100    0.0100
    0.0100    0.0100    0.0100    0.0100    0.0100    0.0100    0.0100    0.0100
    0.0100    0.0100    0.0100    0.0100    0.0100    0.0100    0.0100    0.0100
    0.0100    0.0100    0.0100    0.0100    0.0100    0.0100    0.0100    0.0100
    0.0100    0.0100    0.0100    0.0100    0.0100    0.0100    0.0100    0.0100
    0.0100    0.0100    0.0100    0.0100    0.0100    0.0100    0.0100    0.0100
    0.0100    0.0100    0.0100    0.0100    0.0100    0.0100    0.0100    0.0100
    0.0100    0.0100    0.0100    0.0100    0.0100    0.0100    0.0100    0.0100
    0.0100    0.0100    0.0100    0.0100    0.0100    0.0100    0.0100    0.0100
    0.0100    0.0100    0.0100    0.0100    0.0100    0.0100    0.0100    0.0100
    0.0100    0.0100    0.0100    0.0100    0.0100    0.0100    0.0100    0.0100
    0.0100    0.0100    0.0100    0.0100    0.0100    0.0100    0.0100    0.0100
    0.0100    0.0100    0.0100    0.0100    0.0100    0.0100    0.0100    0.0100
    0.0100    0.0100    0.0100    0.0100    0.0100    0.0100    0.0100    0.0100
    0.0100    0.0100    0.0100    0.0100    0.0100    0.0100    0.0100    0.0100
    0.0100    0.0100    0.0100    0.0100    0.0100    0.0100    0.0100    0.0100
    0.0100    0.0100    0.0100    0.0100    0.0100    0.0100    0.0100    0.0100
    0.0100    0.0100    0.0100    0.0100    0.0100    0.0100    0.0100    0.0100
    0.0100    0.0100    0.0100    0.0100    0.0100    0.0100    0.0100    0.0100
    0.0100    0.0100    0.0100    0.0100    0.0100    0.0100    0.0100    0.0100
    0.0100    0.0100    0.0100    0.0100    0.0100    0.0100    0.0100    0.0100
    0.0100    0.0100    0.0100    0.0100    0.0100    0.0100    0.0100    0.0100
    0.0100    0.0100    0.0100    0.0100    0.0100    0.0100    0.0100    0.0100
    0.0100    0.0100    0.0100    0.0100    0.0100    0.0100    0.0100    0.0100
    0.0100    0.0100    0.0100    0.0100    0.0100    0.0100    0.0100    0.0100
    0.0100    0.0100    0.0100    0.0100    0.0100    0.0100    0.0100    0.0100
    0.0100    0.0100    0.0100    0.0100    0.0100    0.0100    0.0100    0.0100
    0.0100    0.0100    0.0100    0.0100    0.0100    0.0100    0.0100    0.0100
    0.0100    0.0100    0.0100    0.0100    0.0100    0.0100    0.0100    0.0100
    0.0100    0.0100    0.0100    0.0100    0.0100    0.0100    0.0100    0.0100
    0.0100    0.0100    0.0100    0.0100    0.0100    0.0100    0.0100    0.0100
    0.0100    0.0100    0.0100    0.0100    0.0100    0.0100    0.0100    0.0100
    0.0100    0.0100    0.0100    0.0100    0.0100    0.0100    0.0100    0.0100
    0.0100    0.0100    0.0100    0.0100    0.0100    0.0100    0.0100    0.0100
    0.0100    0.0100    0.0100    0.0100    0.0100    0.0100    0.0100    0.0100
    0.0100    0.0100    0.0100    0.0100    0.0100    0.0100    0.0100    0.0100
    0.0100    0.0100    0.0100    0.0100    0.0100    0.0100    0.0100    0.0100
    0.0100    0.0100    0.0100    0.0100    0.0100    0.0100    0.0100    0.0100
    0.0100    0.0100    0.0100    0.0100    0.0100    0.0100    0.0100    0.0100
    0.0100    0.0100    0.0100    0.0100    0.0100    0.0100    0.0100    0.0100
    0.0100    0.0100    0.0100    0.0100    0.0100    0.0100    0.0100    0.0100
    0.0100    0.0100    0.0100    0.0100    0.0100    0.0100    0.0100    0.0100
    0.0100    0.0100    0.0100    0.0100    0.0100    0.0100    0.0100    0.0100
    0.0100    0.0100
   </PP_RAB>
 </PP_MESH>
  <PP_LOCAL type="real"  size=" 602" columns="4">
   -3.9948075372E+01   -4.0062839457E+01   -4.0306414265E+01   -4.0591424296E+01
   -4.0830494047E+01   -4.0984873410E+01   -4.1054059253E+01   -4.1055136886E+01
   -4.1008621666E+01   -4.0932085223E+01   -4.0838417858E+01   -4.0736142033E+01
   -4.0630389704E+01   -4.0523926019E+01   -4.0417992923E+01   -4.0312925543E+01
   -4.0208568234E+01   -4.0104537682E+01   -4.0000379541E+01   -3.9895655118E+01
   -3.9789984409E+01   -3.9683063001E+01   -3.9574664081E+01   -3.9464632449E+01
   -3.9352874771E+01   -3.9239348481E+01   -3.9124050751E+01   -3.9007008355E+01
   -3.8888268757E+01   -3.8767892596E+01   -3.8645947598E+01   -3.8522503811E+01
   -3.8397630042E+01   -3.8271391315E+01   -3.8143847221E+01   -3.8015050908E+01
   -3.7885048684E+01   -3.7753879911E+01   -3.7621577274E+01   -3.7488167160E+01
   -3.7353670141E+01   -3.7218101501E+01   -3.7081471749E+01   -3.6943787096E+01
   -3.6805049862E+01   -3.6665258832E+01   -3.6524409536E+01   -3.6382494466E+01
   -3.6239503235E+01   -3.6095422704E+01   -3.5950237079E+01   -3.5803927986E+01
   -3.5656474522E+01   -3.5507853394E+01   -3.5358039013E+01   -3.5207003658E+01
   -3.5054717743E+01   -3.4901150047E+01   -3.4746268132E+01   -3.4590038744E+01
   -3.4432428340E+01   -3.4273403665E+01   -3.4112932407E+01   -3.3950983819E+01
   -3.3787529558E+01   -3.3622544338E+01   -3.3456006588E+01   -3.3287899310E+01
   -3.3118210650E+01   -3.2946934420E+01   -3.2774070540E+01   -3.2599625572E+01
   -3.2423612924E+01   -3.2246052901E+01   -3.2066972758E+01   -3.1886406586E+01
   -3.1704395075E+01   -3.1520985167E+01   -3.1336229770E+01   -3.1150187092E+01
   -3.0962920155E+01   -3.0774496211E+01   -3.0584986139E+01   -3.0394463840E+01
   -3.0203005643E+01   -3.0010689739E+01   -2.9817595643E+01   -2.9623803711E+01
   -2.9429394694E+01   -2.9234449350E+01   -2.9039048103E+01   -2.8843270762E+01
   -2.8647196278E+01   -2.8450902575E+01   -2.8254466359E+01   -2.8057963010E+01
   -2.7861466524E+01   -2.7665049451E+01   -2.7468782858E+01   -2.7272736319E+01
   -2.7076977918E+01   -2.6881574327E+01   -2.6686590615E+01   -2.6492090448E+01
   -2.6298136074E+01   -2.6104788343E+01   -2.5912106780E+01   -2.5720149499E+01
   -2.5528973169E+01   -2.5338633176E+01   -2.5149183568E+01   -2.4960677213E+01
   -2.4773165310E+01   -2.4586697813E+01   -2.4401323312E+01   -2.4217089233E+01
   -2.4034041119E+01   -2.3852223241E+01   -2.3671678518E+01   -2.3492448352E+01
   -2.3314572252E+01   -2.3138088342E+01   -2.2963033548E+01   -2.2789442324E+01
   -2.2617347784E+01   -2.2446781780E+01   -2.2277773647E+01   -2.2110351122E+01
   -2.1944540774E+01   -2.1780366417E+01   -2.1617850249E+01   -2.1457013438E+01
   -2.1297873901E+01   -2.1140448405E+01   -2.0984752250E+01   -2.0830797590E+01
   -2.0678595857E+01   -2.0528156065E+01   -2.0379484881E+01   -2.0232588530E+01
   -2.0087469494E+01   -1.9944129696E+01   -1.9802568984E+01   -1.9662784537E+01
   -1.9524773555E+01   -1.9388529106E+01   -1.9254044361E+01   -1.9121309746E+01
   -1.8990313948E+01   -1.8861044802E+01   -1.8733486612E+01   -1.8607624459E+01
   -1.8483438782E+01   -1.8360910809E+01   -1.8240018125E+01   -1.8120737692E+01
   -1.8003044205E+01   -1.7886910278E+01   -1.7772307518E+01   -1.7659204336E+01
   -1.7547568319E+01   -1.7437366875E+01   -1.7328566415E+01   -1.7221137227E+01
   -1.7115048069E+01   -1.7010271959E+01   -1.6906779992E+01   -1.6804547525E+01
   -1.6703547951E+01   -1.6603758659E+01   -1.6505155155E+01   -1.6407716699E+01
   -1.6311420693E+01   -1.6216248025E+01   -1.6122177916E+01   -1.6029192517E+01
   -1.5937272737E+01   -1.5846401724E+01   -1.5756561878E+01   -1.5667737102E+01
   -1.5579911054E+01   -1.5493068183E+01   -1.5407193111E+01   -1.5322270689E+01
   -1.5238286161E+01   -1.5155224688E+01   -1.5073072036E+01   -1.4991813544E+01
   -1.4911435724E+01   -1.4831924389E+01   -1.4753266461E+01   -1.4675448614E+01
   -1.4598457713E+01   -1.4522280676E+01   -1.4446904425E+01   -1.4372316164E+01
   -1.4298502435E+01   -1.4225451735E+01   -1.4153151539E+01   -1.4081590487E+01
   -1.4010757346E+01   -1.3940640793E+01   -1.3871230281E+01   -1.3802514572E+01
   -1.3734483667E+01   -1.3667127075E+01   -1.3600434720E+01   -1.3534397022E+01
   -1.3469003776E+01   -1.3404246128E+01   -1.3340114573E+01   -1.3276600083E+01
   -1.3213693937E+01   -1.3151386898E+01   -1.3089670903E+01   -1.3028537303E+01
   -1.2967977836E+01   -1.2907984660E+01   -1.2848549382E+01   -1.2789664599E+01
   -1.2731322545E+01   -1.2673515521E+01   -1.2616236469E+01   -1.2559477822E+01
   -1.2503232615E+01   -1.2447493997E+01   -1.2392254662E+01   -1.2337508291E+01
   -1.2283248116E+01   -1.2229467450E+01   -1.2176160195E+01   -1.2123319803E+01
   -1.2070940154E+01   -1.2019015355E+01   -1.1967539089E+01   -1.1916505741E+01
   -1.1865909613E+01   -1.1815744640E+01   -1.1766005641E+01   -1.1716687061E+01
   -1.1667783256E+01   -1.1619289259E+01   -1.1571199733E+01   -1.1523509409E+01
   -1.1476213529E+01   -1.1429306976E+01   -1.1382784813E+01   -1.1336642488E+01
   -1.1290875106E+01   -1.1245478019E+01   -1.1200446882E+01   -1.1155777020E+01
   -1.1111464035E+01   -1.1067503788E+01   -1.1023891826E+01   -1.0980623961E+01
   -1.0937696260E+01   -1.0895104494E+01   -1.0852844645E+01   -1.0810912988E+01
   -1.0769305518E+01   -1.0728018354E+01   -1.0687047976E+01   -1.0646390605E+01
   -1.0606042463E+01   -1.0566000236E+01   -1.0526260369E+01   -1.0486819162E+01
   -1.0447673498E+01   -1.0408820031E+01   -1.0370255173E+01   -1.0331975941E+01
   -1.0293979171E+01   -1.0256261494E+01   -1.0218819930E+01   -1.0181651529E+01
   -1.0144753148E+01   -1.0108121780E+01   -1.0071754687E+01   -1.0035648952E+01
   -9.9998015274E+00   -9.9642098752E+00   -9.9288712491E+00   -9.8937827193E+00
   -9.8589417678E+00   -9.8243458359E+00   -9.7899922159E+00   -9.7558782906E+00
   -9.7220017140E+00   -9.6883599966E+00   -9.6549504398E+00   -9.6217708677E+00
   -9.5888189191E+00   -9.5560921129E+00   -9.5235881304E+00   -9.4913048280E+00
   -9.4592399483E+00   -9.4273910311E+00   -9.3957561224E+00   -9.3643330760E+00
   -9.3331196498E+00   -9.3021137083E+00   -9.2713133240E+00   -9.2407164488E+00
   -9.2103208671E+00   -9.1801247439E+00   -9.1501261626E+00   -9.1203231318E+00
   -9.0907136012E+00   -9.0612958689E+00   -9.0320680761E+00   -9.0030282623E+00
   -8.9741746193E+00   -8.9455054711E+00   -8.9170190467E+00   -8.8887134271E+00
   -8.8605870131E+00   -8.8326381578E+00   -8.8048651697E+00   -8.7772661919E+00
   -8.7498397896E+00   -8.7225843547E+00   -8.6954982409E+00   -8.6685797512E+00
   -8.6418274940E+00   -8.6152399364E+00   -8.5888154842E+00   -8.5625525746E+00
   -8.5364498621E+00   -8.5105058859E+00   -8.4847191095E+00   -8.4590880791E+00
   -8.4336115001E+00   -8.4082879802E+00   -8.3831160455E+00   -8.3580943278E+00
   -8.3332215881E+00   -8.3084964991E+00   -8.2839176547E+00   -8.2594837499E+00
   -8.2351936056E+00   -8.2110459570E+00   -8.1870394699E+00   -8.1631728814E+00
   -8.1394450776E+00   -8.1158548527E+00   -8.0924009487E+00   -8.0690821257E+00
   -8.0458973385E+00   -8.0228454379E+00   -7.9999252464E+00   -7.9771355292E+00
   -7.9544753131E+00   -7.9319435026E+00   -7.9095390022E+00   -7.8872605743E+00
   -7.8651073121E+00   -7.8430781739E+00   -7.8211721153E+00   -7.7993879858E+00
   -7.7777248428E+00   -7.7561817301E+00   -7.7347576521E+00   -7.7134515504E+00
   -7.6922624314E+00   -7.6711894262E+00   -7.6502315857E+00   -7.6293879487E+00
   -7.6086574578E+00   -7.5880393315E+00   -7.5675326651E+00   -7.5471365538E+00
   -7.5268500007E+00   -7.5066721775E+00   -7.4866022653E+00   -7.4666394015E+00
   -7.4467826932E+00   -7.4270312156E+00   -7.4073842475E+00   -7.3878409664E+00
   -7.3684005501E+00   -7.3490620841E+00   -7.3298248281E+00   -7.3106880350E+00
   -7.2916509211E+00   -7.2727126827E+00   -7.2538724556E+00   -7.2351295972E+00
   -7.2164833603E+00   -7.1979329975E+00   -7.1794776950E+00   -7.1611167322E+00
   -7.1428494542E+00   -7.1246751485E+00   -7.1065931026E+00   -7.0886025017E+00
   -7.0707027467E+00   -7.0528931752E+00   -7.0351731078E+00   -7.0175418495E+00
   -6.9999986404E+00   -6.9825429328E+00   -6.9651740792E+00   -6.9478914319E+00
   -6.9306943031E+00   -6.9135820205E+00   -6.8965540414E+00   -6.8796097484E+00
   -6.8627485240E+00   -6.8459696942E+00   -6.8292726560E+00   -6.8126568768E+00
   -6.7961217679E+00   -6.7796667408E+00   -6.7632911409E+00   -6.7469944171E+00
   -6.7307760524E+00   -6.7146354855E+00   -6.6985721552E+00   -6.6825854321E+00
   -6.6666748003E+00   -6.6508397638E+00   -6.6350797874E+00   -6.6193943362E+00
   -6.6037828103E+00   -6.5882447142E+00   -6.5727795778E+00   -6.5573868909E+00
   -6.5420661435E+00   -6.5268167701E+00   -6.5116382808E+00   -6.4965302365E+00
   -6.4814921508E+00   -6.4665235373E+00   -6.4516238697E+00   -6.4367926501E+00
   -6.4220294745E+00   -6.4073338794E+00   -6.3927054010E+00   -6.3781435565E+00
   -6.3636478274E+00   -6.3492178490E+00   -6.3348531792E+00   -6.3205533758E+00
   -6.3063179967E+00   -6.2921465130E+00   -6.2780385810E+00   -6.2639937860E+00
   -6.2500117065E+00   -6.2360919209E+00   -6.2222339521E+00   -6.2084374078E+00
   -6.1947019237E+00   -6.1810270978E+00   -6.1674125282E+00   -6.1538577940E+00
   -6.1403624445E+00   -6.1269261675E+00   -6.1135485799E+00   -6.1002292984E+00
   -6.0869679397E+00   -6.0737640548E+00   -6.0606173167E+00   -6.0475273826E+00
   -6.0344938870E+00   -6.0215164646E+00   -6.0085947303E+00   -5.9957282754E+00
   -5.9829168180E+00   -5.9701600096E+00   -5.9574575018E+00   -5.9448089462E+00
   -5.9322139408E+00   -5.9196721699E+00   -5.9071833322E+00   -5.8947470956E+00
   -5.8823631279E+00   -5.8700310969E+00   -5.8577505909E+00   -5.8455213704E+00
   -5.8333431204E+00   -5.8212155240E+00   -5.8091382647E+00   -5.7971110049E+00
   -5.7851333926E+00   -5.7732051853E+00   -5.7613260811E+00   -5.7494957779E+00
   -5.7377139739E+00   -5.7259803305E+00   -5.7142945460E+00   -5.7026563750E+00
   -5.6910655295E+00   -5.6795217216E+00   -5.6680246634E+00   -5.6565740208E+00
   -5.6451695288E+00   -5.6338109440E+00   -5.6224979917E+00   -5.6112303974E+00
   -5.6000078867E+00   -5.5888301350E+00   -5.5776969009E+00   -5.5666079477E+00
   -5.5555630138E+00   -5.5445618375E+00   -5.5336041570E+00   -5.5226896620E+00
   -5.5118181222E+00   -5.5009893130E+00   -5.4902029849E+00   -5.4794588882E+00
   -5.4687567736E+00   -5.4580963491E+00   -5.4474773844E+00   -5.4368996712E+00
   -5.4263629715E+00   -5.4158670474E+00   -5.4054116610E+00   -5.3949965436E+00
   -5.3846214532E+00   -5.3742862024E+00   -5.3639905644E+00   -5.3537343123E+00
   -5.3435172192E+00   -5.3333390434E+00   -5.3231995218E+00   -5.3130984913E+00
   -5.3030357356E+00   -5.2930110384E+00   -5.2830241834E+00   -5.2730749543E+00
   -5.2631630743E+00   -5.2532883912E+00   -5.2434507042E+00   -5.2336498071E+00
   -5.2238854938E+00   -5.2141575581E+00   -5.2044657581E+00   -5.1948098984E+00
   -5.1851898122E+00   -5.1756053030E+00   -5.1660561740E+00   -5.1565422288E+00
   -5.1470632645E+00   -5.1376190344E+00   -5.1282094081E+00   -5.1188341980E+00
   -5.1094932166E+00   -5.1001862767E+00   -5.0909131906E+00   -5.0816737355E+00
   -5.0724677373E+00   -5.0632950441E+00   -5.0541554772E+00   -5.0450488579E+00
   -5.0359750075E+00   -5.0269337473E+00   -5.0179248407E+00   -5.0089481724E+00
   -5.0000035742E+00   -4.9910908759E+00   -4.9822099069E+00   -4.9733604969E+00
   -4.9645424589E+00   -4.9557555985E+00   -4.9469997959E+00   -4.9382748886E+00
   -4.9295807142E+00   -4.9209171102E+00   -4.9122839142E+00   -4.9036809338E+00
   -4.8951080120E+00   -4.8865650221E+00   -4.8780518092E+00   -4.8695682184E+00
   -4.8611140948E+00   -4.8526892837E+00   -4.8442935921E+00   -4.8359268890E+00
   -4.8275890454E+00   -4.8192799137E+00   -4.8109993462E+00   -4.8027471953E+00
   -4.7945233134E+00   -4.7863275118E+00   -4.7781596742E+00   -4.7700196744E+00
   -4.7619073715E+00   -4.7538226247E+00   -4.7457652932E+00   -4.7377352363E+00
   -4.7297322739E+00   -4.7217562943E+00   -4.7138071782E+00   -4.7058847912E+00
   -4.6979889990E+00   -4.6901196676E+00   -4.6822766627E+00   -4.6744598165E+00
   -4.6666690128E+00   -4.6589041430E+00
  </PP_LOCAL>
 <PP_NONLOCAL>
   <PP_BETA.1
       type="real"
       size=" 602"
       columns="4"
       index="1"
       angular_momentum="0"
       cutoff_radius_index=" 280"
       cutoff_radius="    2.7900000000E+00" >
    0.0000000000E+00   -6.3358884130E-02   -1.2661156844E-01   -1.8965201141E-01
   -2.5237448836E-01   -3.1467375044E-01   -3.7644518436E-01   -4.3758497290E-01
   -4.9799025662E-01   -5.5755929674E-01   -6.1619163932E-01   -6.7378828101E-01
   -7.3025183619E-01   -7.8548670570E-01   -8.3939924694E-01   -8.9189794550E-01
   -9.4289358787E-01   -9.9229943542E-01   -1.0400313990E+00   -1.0860082141E+00
   -1.1301516164E+00   -1.1723865167E+00   -1.2126411753E+00   -1.2508473755E+00
   -1.2869405947E+00   -1.3208601734E+00   -1.3525494813E+00   -1.3819560792E+00
   -1.4090318770E+00   -1.4337332855E+00   -1.4560213632E+00   -1.4758619546E+00
   -1.4932258232E+00   -1.5080887739E+00   -1.5204317644E+00   -1.5302410128E+00
   -1.5375080830E+00   -1.5422299720E+00   -1.5444091709E+00   -1.5440537201E+00
   -1.5411772490E+00   -1.5357990001E+00   -1.5279438352E+00   -1.5176422286E+00
   -1.5049302414E+00   -1.4898494786E+00   -1.4724470293E+00   -1.4527753880E+00
   -1.4308923581E+00   -1.4068609353E+00   -1.3807491752E+00   -1.3526300423E+00
   -1.3225812325E+00   -1.2906849941E+00   -1.2570279152E+00   -1.2217006936E+00
   -1.1847979200E+00   -1.1464177768E+00   -1.1066618267E+00   -1.0656346550E+00
   -1.0234436334E+00   -9.8019857023E-01   -9.3601136700E-01   -8.9099577572E-01
   -8.4526691182E-01   -7.9894099951E-01   -7.5213504430E-01   -7.0496635635E-01
   -6.5755223780E-01   -6.1000964196E-01   -5.6245482244E-01   -5.1500287326E-01
   -4.6776739369E-01   -4.2086017510E-01   -3.7439082095E-01   -3.2846639887E-01
   -2.8319110969E-01   -2.3866598204E-01   -1.9498844234E-01   -1.5225214623E-01
   -1.1054664727E-01   -6.9957127466E-02   -3.0564145544E-02    7.5565958521E-03
    4.4334463003E-02    7.9704083037E-02    1.1360551409E-01    1.4598439293E-01
    1.7679205941E-01    2.0598565725E-01    2.3352821065E-01    2.5938867655E-01
    2.8354197236E-01    3.0596892618E-01    3.2665638690E-01    3.4559711261E-01
    3.6278966550E-01    3.7823834616E-01    3.9195307820E-01    4.0394927113E-01
    4.1424766276E-01    4.2287407473E-01    4.2985945091E-01    4.3523940973E-01
    4.3905406426E-01    4.4134778965E-01    4.4216897002E-01    4.4156977671E-01
    4.3960580148E-01    4.3633577160E-01    4.3182127418E-01    4.2612663521E-01
    4.1931816356E-01    4.1146414342E-01    4.0263448978E-01    3.9290082125E-01
    3.8233505523E-01    3.7101000832E-01    3.5899912874E-01    3.4637598143E-01
    3.3321321867E-01    3.1958336231E-01    3.0555907695E-01    2.9121026005E-01
    2.7660623400E-01    2.6181582082E-01    2.4690440484E-01    2.3193580582E-01
    2.1697310037E-01    2.0207496615E-01    1.8729810422E-01    1.7269838082E-01